   6    6
1 1
     3.808042930000000    -0.000000000000000    -0.000000000000000
    -0.000000000000000     3.808042930000000    -0.000000000000000
    -0.000000000000000    -0.000000000000000     4.595431834999999
1 2
    -2.344694372500000    -0.000000000000000    -0.000000000000000
    -0.000000000000000    -2.344694372500000    -0.000000000000000
    -0.000000000000000    -0.000000000000000     0.328151557500000
1 3
    -1.452246682819468    -0.000000000000000    -0.000000000000000
    -0.000000000000000     0.198980188721664    -0.000000000000000
    -0.000000000000000    -0.000000000000000    -1.885988542946825
1 4
     0.198980188721664    -0.000000000000000    -0.000000000000000
    -0.000000000000000    -1.452246682819468     0.000000000000000
    -0.000000000000000    -0.000000000000000    -1.885988542946825
1 5
    -0.217172680639962    -0.000000000000000     0.000000000000000
    -0.000000000000000     0.006043826746154    -0.000000000000000
    -0.000000000000000    -0.000000000000000    -0.582315041589927
1 6
     0.006043826746154    -0.000000000000000    -0.000000000000000
    -0.000000000000000    -0.217172680639962    -0.000000000000000
    -0.000000000000000    -0.000000000000000    -0.582315041589927
2 1
    -2.344694372500000    -0.000000000000000    -0.000000000000000
    -0.000000000000000    -2.344694372500000    -0.000000000000000
    -0.000000000000000    -0.000000000000000     0.328151557500000
2 2
     3.808042930000000    -0.000000000000000    -0.000000000000000
    -0.000000000000000     3.808042930000000    -0.000000000000000
    -0.000000000000000    -0.000000000000000     4.595431834999999
2 3
     0.198980188721664    -0.000000000000000    -0.000000000000000
    -0.000000000000000    -1.452246682819468     0.000000000000000
    -0.000000000000000    -0.000000000000000    -1.885988542946825
2 4
    -1.452246682819468    -0.000000000000000    -0.000000000000000
    -0.000000000000000     0.198980188721664    -0.000000000000000
    -0.000000000000000    -0.000000000000000    -1.885988542946825
2 5
     0.006043826746154    -0.000000000000000    -0.000000000000000
    -0.000000000000000    -0.217172680639962    -0.000000000000000
    -0.000000000000000    -0.000000000000000    -0.582315041589927
2 6
    -0.217172680639962    -0.000000000000000     0.000000000000000
    -0.000000000000000     0.006043826746154    -0.000000000000000
    -0.000000000000000    -0.000000000000000    -0.582315041589927
3 1
    -1.452246682819468    -0.000000000000000    -0.000000000000000
    -0.000000000000000     0.198980188721664    -0.000000000000000
    -0.000000000000000    -0.000000000000000    -1.885988542946825
3 2
     0.198980188721664    -0.000000000000000    -0.000000000000000
    -0.000000000000000    -1.452246682819468    -0.000000000000000
    -0.000000000000000     0.000000000000000    -1.885988542946825
3 3
     5.171186692500000    -0.000000000000000    -0.000000000000000
    -0.000000000000000     5.171186692500000     0.000000000000000
    -0.000000000000000     0.000000000000000     6.590496887500001
3 4
     0.022941202500000    -0.000000000000000    -0.000000000000000
    -0.000000000000000     0.022941202500000     0.000000000000000
    -0.000000000000000     0.000000000000000    -0.294875200000000
3 5
    -0.139417490989860    -0.000000000000000    -0.000000000000000
    -0.000000000000000    -0.139417490989860     0.000000000000000
    -0.000000000000000     0.000000000000000    -0.793692247203323
3 6
    -3.793109634997279    -0.000000000000000    -0.000000000000000
    -0.000000000000000    -3.793109634997279    -0.000000000000000
    -0.000000000000000    -0.000000000000000    -1.727215607287415
4 1
     0.198980188721664    -0.000000000000000    -0.000000000000000
    -0.000000000000000    -1.452246682819468    -0.000000000000000
    -0.000000000000000     0.000000000000000    -1.885988542946825
4 2
    -1.452246682819468    -0.000000000000000    -0.000000000000000
    -0.000000000000000     0.198980188721664    -0.000000000000000
    -0.000000000000000    -0.000000000000000    -1.885988542946825
4 3
     0.022941202500000    -0.000000000000000    -0.000000000000000
    -0.000000000000000     0.022941202500000     0.000000000000000
    -0.000000000000000     0.000000000000000    -0.294875200000000
4 4
     5.171186692500000    -0.000000000000000    -0.000000000000000
    -0.000000000000000     5.171186692500000     0.000000000000000
    -0.000000000000000     0.000000000000000     6.590496887500001
4 5
    -3.793109634997279    -0.000000000000000    -0.000000000000000
    -0.000000000000000    -3.793109634997279    -0.000000000000000
    -0.000000000000000    -0.000000000000000    -1.727215607287415
4 6
    -0.139417490989860    -0.000000000000000    -0.000000000000000
    -0.000000000000000    -0.139417490989860     0.000000000000000
    -0.000000000000000     0.000000000000000    -0.793692247203323
5 1
    -0.217172680639962    -0.000000000000000    -0.000000000000000
    -0.000000000000000     0.006043826746154    -0.000000000000000
     0.000000000000000    -0.000000000000000    -0.582315041589927
5 2
     0.006043826746154    -0.000000000000000    -0.000000000000000
    -0.000000000000000    -0.217172680639962    -0.000000000000000
    -0.000000000000000    -0.000000000000000    -0.582315041589927
5 3
    -0.139417490989860    -0.000000000000000    -0.000000000000000
    -0.000000000000000    -0.139417490989860     0.000000000000000
    -0.000000000000000     0.000000000000000    -0.793692247203323
5 4
    -3.793109634997279    -0.000000000000000    -0.000000000000000
    -0.000000000000000    -3.793109634997279    -0.000000000000000
    -0.000000000000000    -0.000000000000000    -1.727215607287415
5 5
     4.885606220000000    -0.000000000000000    -0.000000000000000
    -0.000000000000000     4.885606220000000    -0.000000000000000
    -0.000000000000000    -0.000000000000000     4.263746343999999
5 6
    -0.749236576000000    -0.000000000000000     0.000000000000000
    -0.000000000000000    -0.749236576000000    -0.000000000000000
     0.000000000000000    -0.000000000000000    -0.567919528000000
6 1
     0.006043826746154    -0.000000000000000    -0.000000000000000
    -0.000000000000000    -0.217172680639962    -0.000000000000000
    -0.000000000000000    -0.000000000000000    -0.582315041589927
6 2
    -0.217172680639962    -0.000000000000000    -0.000000000000000
    -0.000000000000000     0.006043826746154    -0.000000000000000
     0.000000000000000    -0.000000000000000    -0.582315041589927
6 3
    -3.793109634997279    -0.000000000000000    -0.000000000000000
    -0.000000000000000    -3.793109634997279    -0.000000000000000
    -0.000000000000000    -0.000000000000000    -1.727215607287415
6 4
    -0.139417490989860    -0.000000000000000    -0.000000000000000
    -0.000000000000000    -0.139417490989860     0.000000000000000
    -0.000000000000000     0.000000000000000    -0.793692247203323
6 5
    -0.749236576000000    -0.000000000000000     0.000000000000000
    -0.000000000000000    -0.749236576000000    -0.000000000000000
     0.000000000000000    -0.000000000000000    -0.567919528000000
6 6
     4.885606220000000    -0.000000000000000    -0.000000000000000
    -0.000000000000000     4.885606220000000    -0.000000000000000
    -0.000000000000000    -0.000000000000000     4.263746343999999