64   
2    

1    
  0.0200000000000000   0.0000000000000000   0.0000000000000000
  -0.0007777792   -0.0000000000   -0.0000000000
   0.0001259808   -0.0000000000   -0.0000000000
  -0.0000000592   -0.0000000000   -0.0000000000
   0.0000044308   -0.0000000000   -0.0000000000
  -0.0000000592   -0.0000000000   -0.0000000000
   0.0000044308   -0.0000000000   -0.0000000000
  -0.0000037292   -0.0000000000   -0.0000000000
   0.0000049508   -0.0000000000   -0.0000000000
  -0.0000211692   -0.0000001300   -0.0000001300
   0.0000162708   -0.0000000300   -0.0000000300
  -0.0000211692    0.0000001300   -0.0000001300
   0.0000162708    0.0000000300   -0.0000000300
  -0.0000211692   -0.0000001300    0.0000001300
   0.0000162708   -0.0000000300    0.0000000300
  -0.0000211692    0.0000001300    0.0000001300
   0.0000162708    0.0000000300    0.0000000300
   0.0000218408   -0.0000000000    0.0000803400
   0.0000218008   -0.0000000000   -0.0000789000
  -0.0000000392   -0.0000000000    0.0000000300
  -0.0000001692   -0.0000000000   -0.0000005400
   0.0000218408   -0.0000000000   -0.0000803400
   0.0000218008   -0.0000000000    0.0000789000
  -0.0000000392   -0.0000000000   -0.0000000300
  -0.0000001692   -0.0000000000    0.0000005400
   0.0000218408    0.0000803400   -0.0000000000
   0.0000218008   -0.0000789000   -0.0000000000
   0.0000218408   -0.0000803400   -0.0000000000
   0.0000218008    0.0000789000   -0.0000000000
  -0.0000000392    0.0000000300   -0.0000000000
  -0.0000001692   -0.0000005400   -0.0000000000
  -0.0000000392   -0.0000000300   -0.0000000000
  -0.0000001692    0.0000005400   -0.0000000000
  -0.0000022492   -0.0000181800   -0.0000181800
  -0.0000026792    0.0000180600    0.0000180600
  -0.0000022492    0.0000181800   -0.0000181800
  -0.0000026792   -0.0000180600    0.0000180600
  -0.0000022492   -0.0000181800    0.0000181800
  -0.0000026792    0.0000180600   -0.0000180600
  -0.0000022492    0.0000181800    0.0000181800
  -0.0000026792   -0.0000180600   -0.0000180600
   0.0001977308   -0.0000000000   -0.0000000000
   0.0001792208   -0.0000000000   -0.0000000000
   0.0000025208   -0.0000000000   -0.0000000000
   0.0000017808   -0.0000000000   -0.0000000000
   0.0000025208   -0.0000000000   -0.0000000000
   0.0000017808   -0.0000000000   -0.0000000000
  -0.0000002192   -0.0000000000   -0.0000000000
  -0.0000005792   -0.0000000000   -0.0000000000
   0.0000711908   -0.0000004500   -0.0000000000
  -0.0000389392   -0.0000001100   -0.0000000000
   0.0000711908    0.0000004500   -0.0000000000
  -0.0000389392    0.0000001100   -0.0000000000
   0.0000083408    0.0000002600   -0.0000000000
  -0.0000099292   -0.0000003300   -0.0000000000
   0.0000083408   -0.0000002600   -0.0000000000
  -0.0000099292    0.0000003300   -0.0000000000
   0.0000711908   -0.0000000000   -0.0000004500
  -0.0000389392   -0.0000000000   -0.0000001100
   0.0000083408   -0.0000000000    0.0000002600
  -0.0000099292   -0.0000000000   -0.0000003300
   0.0000711908   -0.0000000000    0.0000004500
  -0.0000389392   -0.0000000000    0.0000001100
   0.0000083408   -0.0000000000   -0.0000002600
  -0.0000099292   -0.0000000000    0.0000003300

33   
  0.0200000000000000   0.0000000000000000   0.0000000000000000
  -0.0000021195   -0.0000184000   -0.0000184000
  -0.0000020795    0.0000177400    0.0000177400
  -0.0000021195    0.0000184000   -0.0000184000
  -0.0000020795   -0.0000177400    0.0000177400
  -0.0000021195   -0.0000184000    0.0000184000
  -0.0000020795    0.0000177400   -0.0000177400
  -0.0000021195    0.0000184000    0.0000184000
  -0.0000020795   -0.0000177400   -0.0000177400
   0.0001798605    0.0000000000   -0.0000000000
   0.0001971705    0.0000000000   -0.0000000000
   0.0000023405    0.0000000000   -0.0000000000
   0.0000024505    0.0000000000   -0.0000000000
   0.0000023405    0.0000000000   -0.0000000000
   0.0000024505    0.0000000000   -0.0000000000
   0.0000001305    0.0000000000   -0.0000000000
  -0.0000005495    0.0000000000   -0.0000000000
   0.0000717805    0.0000000500   -0.0000000000
  -0.0000385595    0.0000001400   -0.0000000000
   0.0000717805   -0.0000000500   -0.0000000000
  -0.0000385595   -0.0000001400   -0.0000000000
   0.0000090305   -0.0000006400   -0.0000000000
  -0.0000093395   -0.0000002400   -0.0000000000
   0.0000090305    0.0000006400   -0.0000000000
  -0.0000093395    0.0000002400   -0.0000000000
   0.0000717805    0.0000000000    0.0000000500
  -0.0000385595   -0.0000000000    0.0000001400
   0.0000090305    0.0000000000   -0.0000006400
  -0.0000093395    0.0000000000   -0.0000002400
   0.0000717805    0.0000000000   -0.0000000500
  -0.0000385595    0.0000000000   -0.0000001400
   0.0000090305    0.0000000000    0.0000006400
  -0.0000093395   -0.0000000000    0.0000002400
  -0.0009925295    0.0000000000   -0.0000000000
   0.0000592305    0.0000000000   -0.0000000000
  -0.0000207995    0.0000000000   -0.0000000000
   0.0000263305    0.0000000000   -0.0000000000
  -0.0000207995    0.0000000000   -0.0000000000
   0.0000263305    0.0000000000   -0.0000000000
  -0.0000068195    0.0000000000   -0.0000000000
   0.0000082405    0.0000000000   -0.0000000000
  -0.0000321395    0.0000000800    0.0000000800
   0.0000223305    0.0000000800    0.0000000800
  -0.0000321395   -0.0000000800    0.0000000800
   0.0000223305   -0.0000000800    0.0000000800
  -0.0000321395    0.0000000800   -0.0000000800
   0.0000223305    0.0000000800   -0.0000000800
  -0.0000321395   -0.0000000800   -0.0000000800
   0.0000223305   -0.0000000800   -0.0000000800
   0.0000567305    0.0000000000    0.0000840200
   0.0000576205    0.0000000000   -0.0000852100
   0.0000002905    0.0000000000    0.0000080200
   0.0000001105    0.0000000000   -0.0000077700
   0.0000567305    0.0000000000   -0.0000840200
   0.0000576205    0.0000000000    0.0000852100
   0.0000002905   -0.0000000000   -0.0000080200
   0.0000001105   -0.0000000000    0.0000077700
   0.0000567305    0.0000840200   -0.0000000000
   0.0000576205   -0.0000852100   -0.0000000000
   0.0000567305   -0.0000840200   -0.0000000000
   0.0000576205    0.0000852100   -0.0000000000
   0.0000002905    0.0000080200   -0.0000000000
   0.0000001105   -0.0000077700   -0.0000000000
   0.0000002905   -0.0000080200   -0.0000000000
   0.0000001105    0.0000077700   -0.0000000000
