
     Program PWSCF v.6.8 starts on 27Dec2024 at 17:56:47 

     This program is part of the open-source Quantum ESPRESSO suite
     for quantum simulation of materials; please cite
         "P. Giannozzi et al., J. Phys.:Condens. Matter 21 395502 (2009);
         "P. Giannozzi et al., J. Phys.:Condens. Matter 29 465901 (2017);
         "P. Giannozzi et al., J. Chem. Phys. 152 154105 (2020);
          URL http://www.quantum-espresso.org", 
     in publications or presentations arising from this work. More details at
     http://www.quantum-espresso.org/quote

     Parallel version (MPI), running on    16 processors

     MPI processes distributed on     1 nodes
     R & G space division:  proc/nbgrp/npool/nimage =      16
     101347 MiB available memory on the printing compute node when the environment starts
 
     Reading input from NaCl-001.in

     Current dimensions of program PWSCF are:
     Max number of different atomic species (ntypx) = 10
     Max number of k-points (npk) =  40000
     Max angular momentum in pseudopotentials (lmaxx) =  4
     file Na.pbe-spn-kjpaw_psl.1.0.0.UPF: wavefunction(s)  2P renormalized
     file Cl.pbe-n-kjpaw_psl.1.0.0.UPF: wavefunction(s)  3S 3P renormalized
     Message from routine setup:
     using ibrav=0 with symmetry is DISCOURAGED, use correct ibrav instead

     Subspace diagonalization in iterative solution of the eigenvalue problem:
     a serial algorithm will be used

 
     Parallelization info
     --------------------
     sticks:   dense  smooth     PW     G-vecs:    dense   smooth      PW
     Min         644     644    165                49140    49140    6426
     Max         645     645    167                49142    49142    6427
     Sum       10309   10309   2661               786247   786247  102831
 
     Using Slab Decomposition
 


     bravais-lattice index     =            0
     lattice parameter (alat)  =      21.5062  a.u.
     unit-cell volume          =    9947.0070 (a.u.)^3
     number of atoms/cell      =           64
     number of atomic types    =            2
     number of electrons       =       512.00
     number of Kohn-Sham states=          256
     kinetic-energy cutoff     =      70.0000  Ry
     charge density cutoff     =     280.0000  Ry
     scf convergence threshold =      1.0E-09
     mixing beta               =       0.7000
     number of iterations used =            8  plain     mixing
     Exchange-correlation= SLA  PW   PBX  PBC
                           (   1   4   3   4   0   0   0)

     celldm(1)=  21.506223  celldm(2)=   0.000000  celldm(3)=   0.000000
     celldm(4)=   0.000000  celldm(5)=   0.000000  celldm(6)=   0.000000

     crystal axes: (cart. coord. in units of alat)
               a(1) = (   1.000000   0.000000   0.000000 )  
               a(2) = (   0.000000   1.000000   0.000000 )  
               a(3) = (   0.000000   0.000000   1.000000 )  

     reciprocal axes: (cart. coord. in units 2 pi/alat)
               b(1) = (  1.000000  0.000000  0.000000 )  
               b(2) = (  0.000000  1.000000  0.000000 )  
               b(3) = (  0.000000  0.000000  1.000000 )  


     PseudoPot. # 1 for Na read from file:
     ./Na.pbe-spn-kjpaw_psl.1.0.0.UPF
     MD5 check sum: 2b1be151dfbd27559b12a890a8f36e5d
     Pseudo is Projector augmented-wave + core cor, Zval =  9.0
     Generated using &quot;atomic&quot; code by A. Dal Corso  v.6.3
     Shape of augmentation charge: PSQ
     Using radial grid of 1121 points,  4 beta functions with: 
                l(1) =   0
                l(2) =   0
                l(3) =   1
                l(4) =   1
     Q(r) pseudized with 0 coefficients 


     PseudoPot. # 2 for Cl read from file:
     ./Cl.pbe-n-kjpaw_psl.1.0.0.UPF
     MD5 check sum: 2dc934560354a56862e263003a8d9026
     Pseudo is Projector augmented-wave + core cor, Zval =  7.0
     Generated using &quot;atomic&quot; code by A. Dal Corso  v.6.3
     Shape of augmentation charge: PSQ
     Using radial grid of 1157 points,  6 beta functions with: 
                l(1) =   0
                l(2) =   0
                l(3) =   1
                l(4) =   1
                l(5) =   2
                l(6) =   2
     Q(r) pseudized with 0 coefficients 


     atomic species   valence    mass     pseudopotential
        Na             9.00    22.98977     Na( 1.00)
        Cl             7.00    35.45300     Cl( 1.00)

      8 Sym. Ops. (no inversion) found



   Cartesian axes

     site n.     atom                  positions (alat units)
         1           Na  tau(   1) = (   0.0009300   0.0000000   0.0000000  )
         2           Na  tau(   2) = (   0.5000000   0.0000000   0.0000000  )
         3           Na  tau(   3) = (   0.0000000   0.5000000   0.0000000  )
         4           Na  tau(   4) = (   0.5000000   0.5000000   0.0000000  )
         5           Na  tau(   5) = (   0.0000000   0.0000000   0.5000000  )
         6           Na  tau(   6) = (   0.5000000   0.0000000   0.5000000  )
         7           Na  tau(   7) = (   0.0000000   0.5000000   0.5000000  )
         8           Na  tau(   8) = (   0.5000000   0.5000000   0.5000000  )
         9           Na  tau(   9) = (   0.0000000   0.2500000   0.2500000  )
        10           Na  tau(  10) = (   0.5000000   0.2500000   0.2500000  )
        11           Na  tau(  11) = (   0.0000000   0.7500000   0.2500000  )
        12           Na  tau(  12) = (   0.5000000   0.7500000   0.2500000  )
        13           Na  tau(  13) = (   0.0000000   0.2500000   0.7500000  )
        14           Na  tau(  14) = (   0.5000000   0.2500000   0.7500000  )
        15           Na  tau(  15) = (   0.0000000   0.7500000   0.7500000  )
        16           Na  tau(  16) = (   0.5000000   0.7500000   0.7500000  )
        17           Na  tau(  17) = (   0.2500000   0.0000000   0.2500000  )
        18           Na  tau(  18) = (   0.7500000   0.0000000   0.2500000  )
        19           Na  tau(  19) = (   0.2500000   0.5000000   0.2500000  )
        20           Na  tau(  20) = (   0.7500000   0.5000000   0.2500000  )
        21           Na  tau(  21) = (   0.2500000   0.0000000   0.7500000  )
        22           Na  tau(  22) = (   0.7500000   0.0000000   0.7500000  )
        23           Na  tau(  23) = (   0.2500000   0.5000000   0.7500000  )
        24           Na  tau(  24) = (   0.7500000   0.5000000   0.7500000  )
        25           Na  tau(  25) = (   0.2500000   0.2500000   0.0000000  )
        26           Na  tau(  26) = (   0.7500000   0.2500000   0.0000000  )
        27           Na  tau(  27) = (   0.2500000   0.7500000   0.0000000  )
        28           Na  tau(  28) = (   0.7500000   0.7500000   0.0000000  )
        29           Na  tau(  29) = (   0.2500000   0.2500000   0.5000000  )
        30           Na  tau(  30) = (   0.7500000   0.2500000   0.5000000  )
        31           Na  tau(  31) = (   0.2500000   0.7500000   0.5000000  )
        32           Na  tau(  32) = (   0.7500000   0.7500000   0.5000000  )
        33           Cl  tau(  33) = (   0.2500000   0.2500000   0.2500000  )
        34           Cl  tau(  34) = (   0.7500000   0.2500000   0.2500000  )
        35           Cl  tau(  35) = (   0.2500000   0.7500000   0.2500000  )
        36           Cl  tau(  36) = (   0.7500000   0.7500000   0.2500000  )
        37           Cl  tau(  37) = (   0.2500000   0.2500000   0.7500000  )
        38           Cl  tau(  38) = (   0.7500000   0.2500000   0.7500000  )
        39           Cl  tau(  39) = (   0.2500000   0.7500000   0.7500000  )
        40           Cl  tau(  40) = (   0.7500000   0.7500000   0.7500000  )
        41           Cl  tau(  41) = (   0.2500000   0.0000000   0.0000000  )
        42           Cl  tau(  42) = (   0.7500000   0.0000000   0.0000000  )
        43           Cl  tau(  43) = (   0.2500000   0.5000000   0.0000000  )
        44           Cl  tau(  44) = (   0.7500000   0.5000000   0.0000000  )
        45           Cl  tau(  45) = (   0.2500000   0.0000000   0.5000000  )
        46           Cl  tau(  46) = (   0.7500000   0.0000000   0.5000000  )
        47           Cl  tau(  47) = (   0.2500000   0.5000000   0.5000000  )
        48           Cl  tau(  48) = (   0.7500000   0.5000000   0.5000000  )
        49           Cl  tau(  49) = (   0.0000000   0.2500000   0.0000000  )
        50           Cl  tau(  50) = (   0.5000000   0.2500000   0.0000000  )
        51           Cl  tau(  51) = (   0.0000000   0.7500000   0.0000000  )
        52           Cl  tau(  52) = (   0.5000000   0.7500000   0.0000000  )
        53           Cl  tau(  53) = (   0.0000000   0.2500000   0.5000000  )
        54           Cl  tau(  54) = (   0.5000000   0.2500000   0.5000000  )
        55           Cl  tau(  55) = (   0.0000000   0.7500000   0.5000000  )
        56           Cl  tau(  56) = (   0.5000000   0.7500000   0.5000000  )
        57           Cl  tau(  57) = (   0.0000000   0.0000000   0.2500000  )
        58           Cl  tau(  58) = (   0.5000000   0.0000000   0.2500000  )
        59           Cl  tau(  59) = (   0.0000000   0.5000000   0.2500000  )
        60           Cl  tau(  60) = (   0.5000000   0.5000000   0.2500000  )
        61           Cl  tau(  61) = (   0.0000000   0.0000000   0.7500000  )
        62           Cl  tau(  62) = (   0.5000000   0.0000000   0.7500000  )
        63           Cl  tau(  63) = (   0.0000000   0.5000000   0.7500000  )
        64           Cl  tau(  64) = (   0.5000000   0.5000000   0.7500000  )

     number of k points=     1
                       cart. coord. in units 2pi/alat
        k(    1) = (   0.2500000   0.2500000   0.2500000), wk =   2.0000000

     Dense  grid:   786247 G-vectors     FFT dimensions: ( 120, 120, 120)

     Estimated max dynamical RAM per process >     345.05 MB

     Estimated total dynamical RAM >       5.39 GB

     Check: negative core charge=   -0.000005

     Initial potential from superposition of free atoms

     starting charge  511.79837, renormalised to  512.00000
     Starting wfcs are  288 randomized atomic wfcs
     Checking if some PAW data can be deallocated... 

     total cpu time spent up to now is        3.3 secs

     Self-consistent Calculation

     iteration #  1     ecut=    70.00 Ry     beta= 0.70
     Davidson diagonalization with overlap
     ethr =  1.00E-02,  avg # of iterations =  1.0

     Threshold (ethr) on eigenvalues was too large:
     Diagonalizing with lowered threshold

     Davidson diagonalization with overlap
     ethr =  4.47E-04,  avg # of iterations =  3.0

     total cpu time spent up to now is       14.5 secs

     total energy              =   -6042.46452894 Ry
     estimated scf accuracy    <       1.74061276 Ry

     iteration #  2     ecut=    70.00 Ry     beta= 0.70
     Davidson diagonalization with overlap
     ethr =  3.40E-04,  avg # of iterations =  4.0

     total cpu time spent up to now is       21.5 secs

     total energy              =   -6043.04541856 Ry
     estimated scf accuracy    <       0.35503067 Ry

     iteration #  3     ecut=    70.00 Ry     beta= 0.70
     Davidson diagonalization with overlap
     ethr =  6.93E-05,  avg # of iterations =  4.0

     total cpu time spent up to now is       28.3 secs

     total energy              =   -6043.11503887 Ry
     estimated scf accuracy    <       0.01551465 Ry

     iteration #  4     ecut=    70.00 Ry     beta= 0.70
     Davidson diagonalization with overlap
     ethr =  3.03E-06,  avg # of iterations =  6.0

     total cpu time spent up to now is       38.7 secs

     total energy              =   -6043.13516143 Ry
     estimated scf accuracy    <       0.01540480 Ry

     iteration #  5     ecut=    70.00 Ry     beta= 0.70
     Davidson diagonalization with overlap
     ethr =  3.01E-06,  avg # of iterations =  2.0

     total cpu time spent up to now is       45.1 secs

     total energy              =   -6043.13683610 Ry
     estimated scf accuracy    <       0.00102213 Ry

     iteration #  6     ecut=    70.00 Ry     beta= 0.70
     Davidson diagonalization with overlap
     ethr =  2.00E-07,  avg # of iterations =  6.0

     total cpu time spent up to now is       55.7 secs

     total energy              =   -6043.13802553 Ry
     estimated scf accuracy    <       0.00081352 Ry

     iteration #  7     ecut=    70.00 Ry     beta= 0.70
     Davidson diagonalization with overlap
     ethr =  1.59E-07,  avg # of iterations =  2.0

     total cpu time spent up to now is       61.4 secs

     total energy              =   -6043.13791042 Ry
     estimated scf accuracy    <       0.00029313 Ry

     iteration #  8     ecut=    70.00 Ry     beta= 0.70
     Davidson diagonalization with overlap
     ethr =  5.73E-08,  avg # of iterations =  2.0

     total cpu time spent up to now is       67.8 secs

     total energy              =   -6043.13797771 Ry
     estimated scf accuracy    <       0.00000346 Ry

     iteration #  9     ecut=    70.00 Ry     beta= 0.70
     Davidson diagonalization with overlap
     ethr =  6.76E-10,  avg # of iterations =  9.0

     total cpu time spent up to now is       84.2 secs

     total energy              =   -6043.13798681 Ry
     estimated scf accuracy    <       0.00000012 Ry

     iteration # 10     ecut=    70.00 Ry     beta= 0.70
     Davidson diagonalization with overlap
     ethr =  2.41E-11,  avg # of iterations =  7.0

     total cpu time spent up to now is       96.8 secs

     total energy              =   -6043.13798699 Ry
     estimated scf accuracy    <       0.00000009 Ry

     iteration # 11     ecut=    70.00 Ry     beta= 0.70
     Davidson diagonalization with overlap
     ethr =  1.78E-11,  avg # of iterations =  3.0

     total cpu time spent up to now is      104.9 secs

     total energy              =   -6043.13798703 Ry
     estimated scf accuracy    <       0.00000001 Ry

     iteration # 12     ecut=    70.00 Ry     beta= 0.70
     Davidson diagonalization with overlap
     ethr =  2.80E-12,  avg # of iterations =  4.0

     total cpu time spent up to now is      112.1 secs

     total energy              =   -6043.13798703 Ry
     estimated scf accuracy    <          8.1E-09 Ry

     iteration # 13     ecut=    70.00 Ry     beta= 0.70
     Davidson diagonalization with overlap
     ethr =  1.58E-12,  avg # of iterations =  2.0

     total cpu time spent up to now is      119.0 secs

     End of self-consistent calculation

          k = 0.2500 0.2500 0.2500 ( 98322 PWs)   bands (ev):

   -48.2038 -48.2037 -48.2037 -48.2036 -48.2023 -48.2021 -48.2021 -48.2020
   -48.2019 -48.2018 -48.2017 -48.2017 -48.2017 -48.2017 -48.2017 -48.2016
   -48.2016 -48.2016 -48.2016 -48.2016 -48.2016 -48.2016 -48.2015 -48.2015
   -48.2012 -48.2012 -48.2012 -48.2011 -48.1997 -48.1996 -48.1996 -48.1995
   -20.1340 -20.1338 -20.1338 -20.1322 -20.1296 -20.1295 -20.1292 -20.1291
   -20.1291 -20.1290 -20.1289 -20.1288 -20.1286 -20.1279 -20.1274 -20.1274
   -20.1269 -20.1267 -20.1264 -20.1263 -20.1263 -20.1260 -20.1259 -20.1256
   -20.1256 -20.1254 -20.1253 -20.1251 -20.1210 -20.1209 -20.1209 -20.1209
   -20.1208 -20.1208 -20.1201 -20.1200 -20.1199 -20.1198 -20.1198 -20.1196
   -20.1188 -20.1187 -20.1186 -20.1174 -20.1172 -20.1172 -20.1171 -20.1170
   -20.1168 -20.1167 -20.1166 -20.1166 -20.1164 -20.1164 -20.1163 -20.1162
   -20.1160 -20.1157 -20.1153 -20.1152 -20.1151 -20.1148 -20.1146 -20.1145
   -20.1144 -20.1143 -20.1140 -20.1140 -20.1137 -20.1137 -20.1136 -20.1133
   -20.1133 -20.1133 -20.1132 -20.1131 -20.1131 -20.1130 -20.1128 -20.1126
   -20.1126 -20.1125 -20.1123 -20.1121 -20.1121 -20.1118 -20.1117 -20.1116
   -20.1114 -20.1111 -20.1110 -20.1109 -20.1108 -20.1103 -20.1102 -20.1101
   -11.7871 -11.6917 -11.6908 -11.6901 -11.6185 -11.6177 -11.6170 -11.5694
   -11.5652 -11.5644 -11.5637 -11.5286 -11.5269 -11.5269 -11.5269 -11.5268
   -11.5255 -11.5156 -11.5155 -11.5154 -11.4895 -11.4885 -11.4879 -11.4829
   -11.4829 -11.4826 -11.4735 -11.4722 -11.4722 -11.4722 -11.4722 -11.4702
    -0.9620  -0.9620  -0.9620  -0.8579  -0.7377  -0.7377  -0.7377  -0.7099
    -0.7090  -0.7082  -0.7003  -0.7000  -0.6996  -0.6996  -0.6992  -0.6989
    -0.5929  -0.5928  -0.5923  -0.5923  -0.5917  -0.5917  -0.5566  -0.5560
    -0.5555  -0.4964  -0.4963  -0.4963  -0.1876  -0.1875  -0.1872  -0.1872
    -0.1869  -0.1869  -0.1320  -0.1317  -0.1314  -0.1128  -0.1125  -0.1123
     0.0757   0.0757   0.0757   0.1169   0.1171   0.1175   0.1175   0.1179
     0.1181   0.2124   0.2126   0.2131   0.2131   0.2136   0.2137   0.2434
     0.2434   0.2434   0.3006   0.3006   0.3006   0.3439   0.3439   0.3439
     0.3758   0.3761   0.3766   0.3956   0.3962   0.3966   0.4101   0.4106
     0.4109   0.4157   0.4281   0.4289   0.4291   0.4291   0.4293   0.4303
     0.4698   0.4698   0.4698   0.5545   0.5545   0.5769   0.5773   0.5777
     0.5863   0.5871   0.5880   0.6147   0.6152   0.6156   0.7305   0.7305

     highest occupied level (ev):     0.7305

!    total energy              =   -6043.13798703 Ry

     total all-electron energy =    -39940.322469 Ry
     estimated scf accuracy    <          6.2E-10 Ry

     The total energy is the sum of the following terms:
     one-electron contribution =   -2620.42061830 Ry
     hartree contribution      =    1520.11835118 Ry
     xc contribution           =    -821.26524455 Ry
     ewald contribution        =   -2182.32845246 Ry
     one-center paw contrib.   =   -1939.24202289 Ry

     convergence has been achieved in  13 iterations

     Forces acting on atoms (cartesian axes, Ry/au):

     atom    1 type  1   force =    -0.00077778    0.00000000    0.00000000
     atom    2 type  1   force =     0.00012598    0.00000000    0.00000000
     atom    3 type  1   force =    -0.00000006    0.00000000    0.00000000
     atom    4 type  1   force =     0.00000443    0.00000000    0.00000000
     atom    5 type  1   force =    -0.00000006    0.00000000    0.00000000
     atom    6 type  1   force =     0.00000443    0.00000000    0.00000000
     atom    7 type  1   force =    -0.00000373    0.00000000    0.00000000
     atom    8 type  1   force =     0.00000495    0.00000000    0.00000000
     atom    9 type  1   force =    -0.00002117   -0.00000013   -0.00000013
     atom   10 type  1   force =     0.00001627   -0.00000003   -0.00000003
     atom   11 type  1   force =    -0.00002117    0.00000013   -0.00000013
     atom   12 type  1   force =     0.00001627    0.00000003   -0.00000003
     atom   13 type  1   force =    -0.00002117   -0.00000013    0.00000013
     atom   14 type  1   force =     0.00001627   -0.00000003    0.00000003
     atom   15 type  1   force =    -0.00002117    0.00000013    0.00000013
     atom   16 type  1   force =     0.00001627    0.00000003    0.00000003
     atom   17 type  1   force =     0.00002184    0.00000000    0.00008034
     atom   18 type  1   force =     0.00002180    0.00000000   -0.00007890
     atom   19 type  1   force =    -0.00000004    0.00000000    0.00000003
     atom   20 type  1   force =    -0.00000017    0.00000000   -0.00000054
     atom   21 type  1   force =     0.00002184    0.00000000   -0.00008034
     atom   22 type  1   force =     0.00002180    0.00000000    0.00007890
     atom   23 type  1   force =    -0.00000004    0.00000000   -0.00000003
     atom   24 type  1   force =    -0.00000017   -0.00000000    0.00000054
     atom   25 type  1   force =     0.00002184    0.00008034    0.00000000
     atom   26 type  1   force =     0.00002180   -0.00007890    0.00000000
     atom   27 type  1   force =     0.00002184   -0.00008034    0.00000000
     atom   28 type  1   force =     0.00002180    0.00007890   -0.00000000
     atom   29 type  1   force =    -0.00000004    0.00000003    0.00000000
     atom   30 type  1   force =    -0.00000017   -0.00000054   -0.00000000
     atom   31 type  1   force =    -0.00000004   -0.00000003   -0.00000000
     atom   32 type  1   force =    -0.00000017    0.00000054    0.00000000
     atom   33 type  2   force =    -0.00000225   -0.00001818   -0.00001818
     atom   34 type  2   force =    -0.00000268    0.00001806    0.00001806
     atom   35 type  2   force =    -0.00000225    0.00001818   -0.00001818
     atom   36 type  2   force =    -0.00000268   -0.00001806    0.00001806
     atom   37 type  2   force =    -0.00000225   -0.00001818    0.00001818
     atom   38 type  2   force =    -0.00000268    0.00001806   -0.00001806
     atom   39 type  2   force =    -0.00000225    0.00001818    0.00001818
     atom   40 type  2   force =    -0.00000268   -0.00001806   -0.00001806
     atom   41 type  2   force =     0.00019773    0.00000000    0.00000000
     atom   42 type  2   force =     0.00017922    0.00000000    0.00000000
     atom   43 type  2   force =     0.00000252    0.00000000    0.00000000
     atom   44 type  2   force =     0.00000178    0.00000000    0.00000000
     atom   45 type  2   force =     0.00000252    0.00000000    0.00000000
     atom   46 type  2   force =     0.00000178    0.00000000    0.00000000
     atom   47 type  2   force =    -0.00000022    0.00000000    0.00000000
     atom   48 type  2   force =    -0.00000058    0.00000000    0.00000000
     atom   49 type  2   force =     0.00007119   -0.00000045   -0.00000000
     atom   50 type  2   force =    -0.00003894   -0.00000011    0.00000000
     atom   51 type  2   force =     0.00007119    0.00000045    0.00000000
     atom   52 type  2   force =    -0.00003894    0.00000011    0.00000000
     atom   53 type  2   force =     0.00000834    0.00000026    0.00000000
     atom   54 type  2   force =    -0.00000993   -0.00000033    0.00000000
     atom   55 type  2   force =     0.00000834   -0.00000026    0.00000000
     atom   56 type  2   force =    -0.00000993    0.00000033    0.00000000
     atom   57 type  2   force =     0.00007119    0.00000000   -0.00000045
     atom   58 type  2   force =    -0.00003894    0.00000000   -0.00000011
     atom   59 type  2   force =     0.00000834    0.00000000    0.00000026
     atom   60 type  2   force =    -0.00000993    0.00000000   -0.00000033
     atom   61 type  2   force =     0.00007119    0.00000000    0.00000045
     atom   62 type  2   force =    -0.00003894    0.00000000    0.00000011
     atom   63 type  2   force =     0.00000834    0.00000000   -0.00000026
     atom   64 type  2   force =    -0.00000993    0.00000000    0.00000033

     Total force =     0.000884     Total SCF correction =     0.000015


     Computing stress (Cartesian axis) and pressure

          total   stress  (Ry/bohr**3)                   (kbar)     P=       -3.73
  -0.00002537   0.00000000   0.00000000           -3.73        0.00        0.00
   0.00000000  -0.00002537   0.00000000            0.00       -3.73        0.00
   0.00000000   0.00000000  -0.00002537            0.00        0.00       -3.73

 
     init_run     :      2.77s CPU      3.13s WALL (       1 calls)
     electrons    :    113.01s CPU    115.76s WALL (       1 calls)
     forces       :      1.75s CPU      1.87s WALL (       1 calls)
     stress       :     26.53s CPU     26.59s WALL (       1 calls)

     Called by init_run:
     wfcinit      :      1.61s CPU      1.68s WALL (       1 calls)
     potinit      :      0.49s CPU      0.52s WALL (       1 calls)
     hinit0       :      0.15s CPU      0.33s WALL (       1 calls)

     Called by electrons:
     c_bands      :     89.05s CPU     90.17s WALL (      14 calls)
     sum_band     :     13.73s CPU     14.64s WALL (      14 calls)
     v_of_rho     :      1.11s CPU      1.18s WALL (      14 calls)
     newd         :      3.90s CPU      4.40s WALL (      14 calls)
     PAW_pot      :      5.45s CPU      5.69s WALL (      14 calls)
     mix_rho      :      0.44s CPU      0.44s WALL (      14 calls)

     Called by c_bands:
     init_us_2    :      1.45s CPU      1.47s WALL (      29 calls)
     cegterg      :     85.48s CPU     86.59s WALL (      14 calls)

     Called by *egterg:
     cdiaghg      :      5.96s CPU      5.95s WALL (      68 calls)
     h_psi        :     45.81s CPU     46.64s WALL (      70 calls)
     s_psi        :      9.49s CPU      9.47s WALL (      70 calls)
     g_psi        :      0.32s CPU      0.32s WALL (      55 calls)

     Called by h_psi:
     h_psi:calbec :      8.76s CPU      8.76s WALL (      70 calls)
     vloc_psi     :     26.64s CPU     27.26s WALL (      70 calls)
     add_vuspsi   :      9.57s CPU      9.55s WALL (      70 calls)

     General routines
     calbec       :     11.93s CPU     11.92s WALL (      89 calls)
     fft          :      0.53s CPU      0.81s WALL (     180 calls)
     ffts         :      0.04s CPU      0.05s WALL (      14 calls)
     fftw         :     20.96s CPU     21.55s WALL (   28164 calls)
 
     Parallel routines
 
     PWSCF        :   2m24.18s CPU   2m27.54s WALL

 
   This run was terminated on:  17:59:14  27Dec2024            

=------------------------------------------------------------------------------=
   JOB DONE.
=------------------------------------------------------------------------------=
