nqpoint: 1400   
npath: 7      
segment_nqpoint:
- 200
- 200
- 200
- 200
- 200
- 200
- 200
reciprocal_lattice:
- [   0.23463162,   0.00000000,   0.00000000 ] # a*
- [   0.00000000,   0.23463162,   0.00000000 ] # b*
- [   0.00000000,   0.00000000,   0.10801469 ] # c*
natom: 6      
lattice:
- [     4.262000083900000,     0.000000000000000,     0.000000000000000 ] # a
- [     0.000000000000000,     4.262000083900000,     0.000000000000000 ] # b
- [     0.000000000000000,     0.000000000000000,     9.258000373800000 ] # c
points:
- symbol: Sb # 1
  coordinates: [  0.750000000000000,  0.250000000000000,  0.500000000000000 ]
  mass: 121.760000
- symbol: Sb # 2
  coordinates: [  0.250000000000000,  0.750000000000000,  0.500000000000000 ]
  mass: 121.760000
- symbol: Gd # 3
  coordinates: [  0.250000000000000,  0.250000000000000,  0.769999981000000 ]
  mass: 157.250000
- symbol: Gd # 4
  coordinates: [  0.750000000000000,  0.750000000000000,  0.230000019000000 ]
  mass: 157.250000
- symbol: Te # 5
  coordinates: [  0.250000000000000,  0.250000000000000,  0.129999995000000 ]
  mass: 127.600000
- symbol: Te # 6
  coordinates: [  0.750000000000000,  0.750000000000000,  0.870000005000000 ]
  mass: 127.600000

phonon:
- q-position: [    0.0000000,    0.0000000,    0.0000000 ]
  distance:    0.0000000
  band:
  - # 1
    frequency:   -0.0000000294
  - # 2
    frequency:    0.0000000343
  - # 3
    frequency:    0.0000000475
  - # 4
    frequency:    1.6114968305
  - # 5
    frequency:    1.6114968305
  - # 6
    frequency:    1.9944594303
  - # 7
    frequency:    1.9944594303
  - # 8
    frequency:    2.8413655898
  - # 9
    frequency:    2.9247554614
  - # 10
    frequency:    3.1366421141
  - # 11
    frequency:    3.3240525178
  - # 12
    frequency:    3.3943757486
  - # 13
    frequency:    3.3943757486
  - # 14
    frequency:    3.8639494808
  - # 15
    frequency:    3.8639494808
  - # 16
    frequency:    4.1042916057
  - # 17
    frequency:    4.1042916057
  - # 18
    frequency:    4.1057321982

- q-position: [    0.0025126,    0.0000000,    0.0000000 ]
  distance:    0.0005895
  band:
  - # 1
    frequency:    0.0126590498
  - # 2
    frequency:    0.0138837701
  - # 3
    frequency:    0.0161150091
  - # 4
    frequency:    1.6115494528
  - # 5
    frequency:    1.6115551814
  - # 6
    frequency:    1.9944886675
  - # 7
    frequency:    1.9945026333
  - # 8
    frequency:    2.8413766904
  - # 9
    frequency:    2.9247591919
  - # 10
    frequency:    3.1366385846
  - # 11
    frequency:    3.3240374474
  - # 12
    frequency:    3.3943551611
  - # 13
    frequency:    3.3943586508
  - # 14
    frequency:    3.8639250848
  - # 15
    frequency:    3.8639265374
  - # 16
    frequency:    4.1042599576
  - # 17
    frequency:    4.1042650930
  - # 18
    frequency:    4.1057172405

- q-position: [    0.0050251,    0.0000000,    0.0000000 ]
  distance:    0.0011791
  band:
  - # 1
    frequency:    0.0253178972
  - # 2
    frequency:    0.0277672013
  - # 3
    frequency:    0.0322297589
  - # 4
    frequency:    1.6117073041
  - # 5
    frequency:    1.6117302175
  - # 6
    frequency:    1.9945763746
  - # 7
    frequency:    1.9946322354
  - # 8
    frequency:    2.8414099846
  - # 9
    frequency:    2.9247703794
  - # 10
    frequency:    3.1366279964
  - # 11
    frequency:    3.3239922458
  - # 12
    frequency:    3.3942933997
  - # 13
    frequency:    3.3943073578
  - # 14
    frequency:    3.8638518976
  - # 15
    frequency:    3.8638577078
  - # 16
    frequency:    4.1041650138
  - # 17
    frequency:    4.1041855558
  - # 18
    frequency:    4.1056723679

- q-position: [    0.0075377,    0.0000000,    0.0000000 ]
  distance:    0.0017686
  band:
  - # 1
    frequency:    0.0379763398
  - # 2
    frequency:    0.0416499548
  - # 3
    frequency:    0.0483439902
  - # 4
    frequency:    1.6119703384
  - # 5
    frequency:    1.6120218890
  - # 6
    frequency:    1.9947225385
  - # 7
    frequency:    1.9948482156
  - # 8
    frequency:    2.8414654493
  - # 9
    frequency:    2.9247890127
  - # 10
    frequency:    3.1366103501
  - # 11
    frequency:    3.3239169411
  - # 12
    frequency:    3.3941904677
  - # 13
    frequency:    3.3942218715
  - # 14
    frequency:    3.8637299210
  - # 15
    frequency:    3.8637429945
  - # 16
    frequency:    4.1040067761
  - # 17
    frequency:    4.1040529966
  - # 18
    frequency:    4.1055975824

- q-position: [    0.0100503,    0.0000000,    0.0000000 ]
  distance:    0.0023581
  band:
  - # 1
    frequency:    0.0506341752
  - # 2
    frequency:    0.0555316917
  - # 3
    frequency:    0.0644574435
  - # 4
    frequency:    1.6123384786
  - # 5
    frequency:    1.6124301133
  - # 6
    frequency:    1.9949271372
  - # 7
    frequency:    1.9951505386
  - # 8
    frequency:    2.8415430462
  - # 9
    frequency:    2.9248150727
  - # 10
    frequency:    3.1365856465
  - # 11
    frequency:    3.3238115804
  - # 12
    frequency:    3.3940463710
  - # 13
    frequency:    3.3941021949
  - # 14
    frequency:    3.8635591585
  - # 15
    frequency:    3.8635824018
  - # 16
    frequency:    4.1037852473
  - # 17
    frequency:    4.1038674196
  - # 18
    frequency:    4.1054928872

- q-position: [    0.0125628,    0.0000000,    0.0000000 ]
  distance:    0.0029476
  band:
  - # 1
    frequency:    0.0632912009
  - # 2
    frequency:    0.0694120731
  - # 3
    frequency:    0.0805698598
  - # 4
    frequency:    1.6128116173
  - # 5
    frequency:    1.6129547746
  - # 6
    frequency:    1.9951901398
  - # 7
    frequency:    1.9955391555
  - # 8
    frequency:    2.8416427215
  - # 9
    frequency:    2.9248485327
  - # 10
    frequency:    3.1365538871
  - # 11
    frequency:    3.3236762294
  - # 12
    frequency:    3.3938611174
  - # 13
    frequency:    3.3939483322
  - # 14
    frequency:    3.8633396148
  - # 15
    frequency:    3.8633759355
  - # 16
    frequency:    4.1035004313
  - # 17
    frequency:    4.1036288306
  - # 18
    frequency:    4.1053582868

- q-position: [    0.0150754,    0.0000000,    0.0000000 ]
  distance:    0.0035372
  band:
  - # 1
    frequency:    0.0759472147
  - # 2
    frequency:    0.0832907600
  - # 3
    frequency:    0.0966809795
  - # 4
    frequency:    1.6133896161
  - # 5
    frequency:    1.6135957243
  - # 6
    frequency:    1.9955115067
  - # 7
    frequency:    1.9960140031
  - # 8
    frequency:    2.8417644060
  - # 9
    frequency:    2.9248893581
  - # 10
    frequency:    3.1365150735
  - # 11
    frequency:    3.3235109732
  - # 12
    frequency:    3.3936347172
  - # 13
    frequency:    3.3937602888
  - # 14
    frequency:    3.8630712959
  - # 15
    frequency:    3.8631236029
  - # 16
    frequency:    4.1031523332
  - # 17
    frequency:    4.1033372371
  - # 18
    frequency:    4.1051937870

- q-position: [    0.0175879,    0.0000000,    0.0000000 ]
  distance:    0.0041267
  band:
  - # 1
    frequency:    0.0886020141
  - # 2
    frequency:    0.0971674137
  - # 3
    frequency:    0.1127905435
  - # 4
    frequency:    1.6140723067
  - # 5
    frequency:    1.6143527811
  - # 6
    frequency:    1.9958911897
  - # 7
    frequency:    1.9965750046
  - # 8
    frequency:    2.8419080152
  - # 9
    frequency:    2.9249375064
  - # 10
    frequency:    3.1364692078
  - # 11
    frequency:    3.3233159158
  - # 12
    frequency:    3.3933671830
  - # 13
    frequency:    3.3935380713
  - # 14
    frequency:    3.8627542093
  - # 15
    frequency:    3.8628254133
  - # 16
    frequency:    4.1027409593
  - # 17
    frequency:    4.1029926484
  - # 18
    frequency:    4.1049993948

- q-position: [    0.0201005,    0.0000000,    0.0000000 ]
  distance:    0.0047162
  band:
  - # 1
    frequency:    0.1012553968
  - # 2
    frequency:    0.1110416950
  - # 3
    frequency:    0.1288982925
  - # 4
    frequency:    1.6148594899
  - # 5
    frequency:    1.6152257311
  - # 6
    frequency:    1.9963291315
  - # 7
    frequency:    1.9972220689
  - # 8
    frequency:    2.8420734493
  - # 9
    frequency:    2.9249929272
  - # 10
    frequency:    3.1364162925
  - # 11
    frequency:    3.3230911805
  - # 12
    frequency:    3.3930585297
  - # 13
    frequency:    3.3932816877
  - # 14
    frequency:    3.8623883636
  - # 15
    frequency:    3.8624813775
  - # 16
    frequency:    4.1022663170
  - # 17
    frequency:    4.1025950753
  - # 18
    frequency:    4.1047751187

- q-position: [    0.0226131,    0.0000000,    0.0000000 ]
  distance:    0.0053057
  band:
  - # 1
    frequency:    0.1139071604
  - # 2
    frequency:    0.1249132651
  - # 3
    frequency:    0.1450039672
  - # 4
    frequency:    1.6157509368
  - # 5
    frequency:    1.6162143284
  - # 6
    frequency:    1.9968252664
  - # 7
    frequency:    1.9979550914
  - # 8
    frequency:    2.8422605931
  - # 9
    frequency:    2.9250555618
  - # 10
    frequency:    3.1363563303
  - # 11
    frequency:    3.3228369101
  - # 12
    frequency:    3.3927087744
  - # 13
    frequency:    3.3929911468
  - # 14
    frequency:    3.8619737689
  - # 15
    frequency:    3.8620915079
  - # 16
    frequency:    4.1017284146
  - # 17
    frequency:    4.1021445303
  - # 18
    frequency:    4.1045209681

- q-position: [    0.0251256,    0.0000000,    0.0000000 ]
  distance:    0.0058953
  band:
  - # 1
    frequency:    0.1265571026
  - # 2
    frequency:    0.1387817849
  - # 3
    frequency:    0.1611073082
  - # 4
    frequency:    1.6167463885
  - # 5
    frequency:    1.6173182948
  - # 6
    frequency:    1.9973795199
  - # 7
    frequency:    1.9987739538
  - # 8
    frequency:    2.8424693159
  - # 9
    frequency:    2.9251253430
  - # 10
    frequency:    3.1362893247
  - # 11
    frequency:    3.3225532670
  - # 12
    frequency:    3.3923179367
  - # 13
    frequency:    3.3926664591
  - # 14
    frequency:    3.8615104367
  - # 15
    frequency:    3.8616558187
  - # 16
    frequency:    4.1011272619
  - # 17
    frequency:    4.1016410276
  - # 18
    frequency:    4.1042369541

- q-position: [    0.0276382,    0.0000000,    0.0000000 ]
  distance:    0.0064848
  band:
  - # 1
    frequency:    0.1392050211
  - # 2
    frequency:    0.1526469153
  - # 3
    frequency:    0.1772080563
  - # 4
    frequency:    1.6178455562
  - # 5
    frequency:    1.6185373207
  - # 6
    frequency:    1.9979918088
  - # 7
    frequency:    1.9996785237
  - # 8
    frequency:    2.8426994717
  - # 9
    frequency:    2.9252021951
  - # 10
    frequency:    3.1362152790
  - # 11
    frequency:    3.3222404335
  - # 12
    frequency:    3.3918860383
  - # 13
    frequency:    3.3923076358
  - # 14
    frequency:    3.8609983798
  - # 15
    frequency:    3.8611743256
  - # 16
    frequency:    4.1004628696
  - # 17
    frequency:    4.1010845833
  - # 18
    frequency:    4.1039230888

- q-position: [    0.0301508,    0.0000000,    0.0000000 ]
  distance:    0.0070743
  band:
  - # 1
    frequency:    0.1518507136
  - # 2
    frequency:    0.1665083173
  - # 3
    frequency:    0.1933059522
  - # 4
    frequency:    1.6190481220
  - # 5
    frequency:    1.6198710648
  - # 6
    frequency:    1.9986620415
  - # 7
    frequency:    2.0006686555
  - # 8
    frequency:    2.8429508991
  - # 9
    frequency:    2.9252860333
  - # 10
    frequency:    3.1361341974
  - # 11
    frequency:    3.3218986121
  - # 12
    frequency:    3.3914131034
  - # 13
    frequency:    3.3919146898
  - # 14
    frequency:    3.8604376122
  - # 15
    frequency:    3.8606470463
  - # 16
    frequency:    4.0997352497
  - # 17
    frequency:    4.1004752148
  - # 18
    frequency:    4.1035793858

- q-position: [    0.0326633,    0.0000000,    0.0000000 ]
  distance:    0.0076638
  band:
  - # 1
    frequency:    0.1644939778
  - # 2
    frequency:    0.1803656517
  - # 3
    frequency:    0.2094007365
  - # 4
    frequency:    1.6203537387
  - # 5
    frequency:    1.6213191549
  - # 6
    frequency:    1.9993901176
  - # 7
    frequency:    2.0017441900
  - # 8
    frequency:    2.8432234215
  - # 9
    frequency:    2.9253767637
  - # 10
    frequency:    3.1360460842
  - # 11
    frequency:    3.3215280258
  - # 12
    frequency:    3.3908991587
  - # 13
    frequency:    3.3914876348
  - # 14
    frequency:    3.8598281495
  - # 15
    frequency:    3.8600739998
  - # 16
    frequency:    4.0989444151
  - # 17
    frequency:    4.0998129414
  - # 18
    frequency:    4.1032058599

- q-position: [    0.0351759,    0.0000000,    0.0000000 ]
  distance:    0.0082534
  band:
  - # 1
    frequency:    0.1771346115
  - # 2
    frequency:    0.1942185793
  - # 3
    frequency:    0.2254921500
  - # 4
    frequency:    1.6217620301
  - # 5
    frequency:    1.6228811883
  - # 6
    frequency:    2.0001759284
  - # 7
    frequency:    2.0029049545
  - # 8
    frequency:    2.8435168466
  - # 9
    frequency:    2.9254742832
  - # 10
    frequency:    3.1359509440
  - # 11
    frequency:    3.3211289183
  - # 12
    frequency:    3.3903442330
  - # 13
    frequency:    3.3910264859
  - # 14
    frequency:    3.8591700085
  - # 15
    frequency:    3.8594552071
  - # 16
    frequency:    4.0980903801
  - # 17
    frequency:    4.0990977840
  - # 18
    frequency:    4.1028025270

- q-position: [    0.0376884,    0.0000000,    0.0000000 ]
  distance:    0.0088429
  band:
  - # 1
    frequency:    0.1897724125
  - # 2
    frequency:    0.2080667609
  - # 3
    frequency:    0.2415799333
  - # 4
    frequency:    1.6232725916
  - # 5
    frequency:    1.6245567320
  - # 6
    frequency:    2.0010193564
  - # 7
    frequency:    2.0041507631
  - # 8
    frequency:    2.8438309669
  - # 9
    frequency:    2.9255784785
  - # 10
    frequency:    3.1358487821
  - # 11
    frequency:    3.3207015544
  - # 12
    frequency:    3.3897483576
  - # 13
    frequency:    3.3905312595
  - # 14
    frequency:    3.8584632075
  - # 15
    frequency:    3.8587906906
  - # 16
    frequency:    4.0971731599
  - # 17
    frequency:    4.0983297653
  - # 18
    frequency:    4.1023694045

- q-position: [    0.0402010,    0.0000000,    0.0000000 ]
  distance:    0.0094324
  band:
  - # 1
    frequency:    0.2024071786
  - # 2
    frequency:    0.2219098572
  - # 3
    frequency:    0.2576638272
  - # 4
    frequency:    1.6248849905
  - # 5
    frequency:    1.6263453233
  - # 6
    frequency:    2.0019202761
  - # 7
    frequency:    2.0054814167
  - # 8
    frequency:    2.8441655595
  - # 9
    frequency:    2.9256892263
  - # 10
    frequency:    3.1357396039
  - # 11
    frequency:    3.3202462206
  - # 12
    frequency:    3.3891115664
  - # 13
    frequency:    3.3900019731
  - # 14
    frequency:    3.8577077658
  - # 15
    frequency:    3.8580804746
  - # 16
    frequency:    4.0961927710
  - # 17
    frequency:    4.0975089095
  - # 18
    frequency:    4.1019065112

- q-position: [    0.0427136,    0.0000000,    0.0000000 ]
  distance:    0.0100220
  band:
  - # 1
    frequency:    0.2150387076
  - # 2
    frequency:    0.2357475288
  - # 3
    frequency:    0.2737435723
  - # 4
    frequency:    1.6265987662
  - # 5
    frequency:    1.6282464700
  - # 6
    frequency:    2.0028785532
  - # 7
    frequency:    2.0068967032
  - # 8
    frequency:    2.8445203859
  - # 9
    frequency:    2.9258063929
  - # 10
    frequency:    3.1356234152
  - # 11
    frequency:    3.3197632250
  - # 12
    frequency:    3.3884338956
  - # 13
    frequency:    3.3894386454
  - # 14
    frequency:    3.8569037046
  - # 15
    frequency:    3.8573245850
  - # 16
    frequency:    4.0951492311
  - # 17
    frequency:    4.0966352427
  - # 18
    frequency:    4.1014138668

- q-position: [    0.0452261,    0.0000000,    0.0000000 ]
  distance:    0.0106115
  band:
  - # 1
    frequency:    0.2276667974
  - # 2
    frequency:    0.2495794362
  - # 3
    frequency:    0.2898189093
  - # 4
    frequency:    1.6284134308
  - # 5
    frequency:    1.6302596513
  - # 6
    frequency:    2.0038940456
  - # 7
    frequency:    2.0083963973
  - # 8
    frequency:    2.8448951924
  - # 9
    frequency:    2.9259298332
  - # 10
    frequency:    3.1355002224
  - # 11
    frequency:    3.3192528985
  - # 12
    frequency:    3.3877153838
  - # 13
    frequency:    3.3888412964
  - # 14
    frequency:    3.8560510460
  - # 15
    frequency:    3.8565230495
  - # 16
    frequency:    4.0940425589
  - # 17
    frequency:    4.0957087925
  - # 18
    frequency:    4.1008914927

- q-position: [    0.0477387,    0.0000000,    0.0000000 ]
  distance:    0.0112010
  band:
  - # 1
    frequency:    0.2402912460
  - # 2
    frequency:    0.2634052401
  - # 3
    frequency:    0.3058895788
  - # 4
    frequency:    1.6303284690
  - # 5
    frequency:    1.6323843183
  - # 6
    frequency:    2.0049666025
  - # 7
    frequency:    2.0099802614
  - # 8
    frequency:    2.8452897100
  - # 9
    frequency:    2.9260593912
  - # 10
    frequency:    3.1353700320
  - # 11
    frequency:    3.3187155943
  - # 12
    frequency:    3.3869560723
  - # 13
    frequency:    3.3882099472
  - # 14
    frequency:    3.8551498136
  - # 15
    frequency:    3.8556758973
  - # 16
    frequency:    4.0928727742
  - # 17
    frequency:    4.0947295884
  - # 18
    frequency:    4.1003394114

- q-position: [    0.0502513,    0.0000000,    0.0000000 ]
  distance:    0.0117905
  band:
  - # 1
    frequency:    0.2529118513
  - # 2
    frequency:    0.2772246007
  - # 3
    frequency:    0.3219553215
  - # 4
    frequency:    1.6323433394
  - # 5
    frequency:    1.6346198942
  - # 6
    frequency:    2.0060960651
  - # 7
    frequency:    2.0116480448
  - # 8
    frequency:    2.8457036539
  - # 9
    frequency:    2.9261948986
  - # 10
    frequency:    3.1352328511
  - # 11
    frequency:    3.3181516893
  - # 12
    frequency:    3.3861560047
  - # 13
    frequency:    3.3875446203
  - # 14
    frequency:    3.8542000326
  - # 15
    frequency:    3.8547831596
  - # 16
    frequency:    4.0916398981
  - # 17
    frequency:    4.0936976614
  - # 18
    frequency:    4.0997576466

- q-position: [    0.0527638,    0.0000000,    0.0000000 ]
  distance:    0.0123801
  band:
  - # 1
    frequency:    0.2655284113
  - # 2
    frequency:    0.2910371785
  - # 3
    frequency:    0.3380158781
  - # 4
    frequency:    1.6344574742
  - # 5
    frequency:    1.6369657749
  - # 6
    frequency:    2.0072822667
  - # 7
    frequency:    2.0133994846
  - # 8
    frequency:    2.8461367241
  - # 9
    frequency:    2.9263361750
  - # 10
    frequency:    3.1350886869
  - # 11
    frequency:    3.3175615842
  - # 12
    frequency:    3.3853152273
  - # 13
    frequency:    3.3868453393
  - # 14
    frequency:    3.8532017292
  - # 15
    frequency:    3.8538448690
  - # 16
    frequency:    4.0903439528
  - # 17
    frequency:    4.0926130442
  - # 18
    frequency:    4.0991462234

- q-position: [    0.0552764,    0.0000000,    0.0000000 ]
  distance:    0.0129696
  band:
  - # 1
    frequency:    0.2781407240
  - # 2
    frequency:    0.3048426337
  - # 3
    frequency:    0.3540709892
  - # 4
    frequency:    1.6366702799
  - # 5
    frequency:    1.6394213302
  - # 6
    frequency:    2.0085250324
  - # 7
    frequency:    2.0152343055
  - # 8
    frequency:    2.8465886052
  - # 9
    frequency:    2.9264830269
  - # 10
    frequency:    3.1349375474
  - # 11
    frequency:    3.3169457039
  - # 12
    frequency:    3.3844337890
  - # 13
    frequency:    3.3861121291
  - # 14
    frequency:    3.8521549313
  - # 15
    frequency:    3.8528610601
  - # 16
    frequency:    4.0889849617
  - # 17
    frequency:    4.0914757714
  - # 18
    frequency:    4.0985051683

- q-position: [    0.0577889,    0.0000000,    0.0000000 ]
  distance:    0.0135591
  band:
  - # 1
    frequency:    0.2907485875
  - # 2
    frequency:    0.3186406265
  - # 3
    frequency:    0.3701203954
  - # 4
    frequency:    1.6389811378
  - # 5
    frequency:    1.6419859037
  - # 6
    frequency:    2.0098241793
  - # 7
    frequency:    2.0171522199
  - # 8
    frequency:    2.8470589663
  - # 9
    frequency:    2.9266352474
  - # 10
    frequency:    3.1347794405
  - # 11
    frequency:    3.3163044985
  - # 12
    frequency:    3.3835117413
  - # 13
    frequency:    3.3853450158
  - # 14
    frequency:    3.8510596679
  - # 15
    frequency:    3.8518317691
  - # 16
    frequency:    4.0875629491
  - # 17
    frequency:    4.0902858792
  - # 18
    frequency:    4.0978345088

- q-position: [    0.0603015,    0.0000000,    0.0000000 ]
  distance:    0.0141486
  band:
  - # 1
    frequency:    0.3033518000
  - # 2
    frequency:    0.3324308170
  - # 3
    frequency:    0.3861638373
  - # 4
    frequency:    1.6413894045
  - # 5
    frequency:    1.6446588137
  - # 6
    frequency:    2.0111795167
  - # 7
    frequency:    2.0191529285
  - # 8
    frequency:    2.8475474611
  - # 9
    frequency:    2.9267926156
  - # 10
    frequency:    3.1346143748
  - # 11
    frequency:    3.3156384435
  - # 12
    frequency:    3.3825491383
  - # 13
    frequency:    3.3845440267
  - # 14
    frequency:    3.8499159696
  - # 15
    frequency:    3.8507570339
  - # 16
    frequency:    4.0860779409
  - # 17
    frequency:    4.0890434054
  - # 18
    frequency:    4.0971342741

- q-position: [    0.0628141,    0.0000000,    0.0000000 ]
  distance:    0.0147382
  band:
  - # 1
    frequency:    0.3159501596
  - # 2
    frequency:    0.3462128652
  - # 3
    frequency:    0.4022010555
  - # 4
    frequency:    1.6438944124
  - # 5
    frequency:    1.6474393539
  - # 6
    frequency:    2.0125908463
  - # 7
    frequency:    2.0212361200
  - # 8
    frequency:    2.8480537277
  - # 9
    frequency:    2.9269548960
  - # 10
    frequency:    3.1344423591
  - # 11
    frequency:    3.3149480409
  - # 12
    frequency:    3.3815460367
  - # 13
    frequency:    3.3837091903
  - # 14
    frequency:    3.8487238683
  - # 15
    frequency:    3.8496368942
  - # 16
    frequency:    4.0845299637
  - # 17
    frequency:    4.0877483895
  - # 18
    frequency:    4.0964044942

- q-position: [    0.0653266,    0.0000000,    0.0000000 ]
  distance:    0.0153277
  band:
  - # 1
    frequency:    0.3285434645
  - # 2
    frequency:    0.3599864311
  - # 3
    frequency:    0.4182317907
  - # 4
    frequency:    1.6464954700
  - # 5
    frequency:    1.6503267942
  - # 6
    frequency:    2.0140579617
  - # 7
    frequency:    2.0234014714
  - # 8
    frequency:    2.8485773888
  - # 9
    frequency:    2.9271218376
  - # 10
    frequency:    3.1342634028
  - # 11
    frequency:    3.3142338194
  - # 12
    frequency:    3.3805024963
  - # 13
    frequency:    3.3828405366
  - # 14
    frequency:    3.8474833972
  - # 15
    frequency:    3.8484713915
  - # 16
    frequency:    4.0829190455
  - # 17
    frequency:    4.0864008731
  - # 18
    frequency:    4.0956452009

- q-position: [    0.0678392,    0.0000000,    0.0000000 ]
  distance:    0.0159172
  band:
  - # 1
    frequency:    0.3411315131
  - # 2
    frequency:    0.3737511744
  - # 3
    frequency:    0.4342557834
  - # 4
    frequency:    1.6491918627
  - # 5
    frequency:    1.6533203808
  - # 6
    frequency:    2.0155806494
  - # 7
    frequency:    2.0256486484
  - # 8
    frequency:    2.8491180515
  - # 9
    frequency:    2.9272931737
  - # 10
    frequency:    3.1340775154
  - # 11
    frequency:    3.3134963354
  - # 12
    frequency:    3.3794185794
  - # 13
    frequency:    3.3819380965
  - # 14
    frequency:    3.8461945911
  - # 15
    frequency:    3.8472605689
  - # 16
    frequency:    4.0812452155
  - # 17
    frequency:    4.0850008990
  - # 18
    frequency:    4.0948564269

- q-position: [    0.0703518,    0.0000000,    0.0000000 ]
  distance:    0.0165067
  band:
  - # 1
    frequency:    0.3537141036
  - # 2
    frequency:    0.3875067549
  - # 3
    frequency:    0.4502727741
  - # 4
    frequency:    1.6519828534
  - # 5
    frequency:    1.6564193378
  - # 6
    frequency:    2.0171586880
  - # 7
    frequency:    2.0279773054
  - # 8
    frequency:    2.8496753074
  - # 9
    frequency:    2.9274686211
  - # 10
    frequency:    3.1338847069
  - # 11
    frequency:    3.3127361735
  - # 12
    frequency:    3.3782943511
  - # 13
    frequency:    3.3810019024
  - # 14
    frequency:    3.8448574860
  - # 15
    frequency:    3.8460044715
  - # 16
    frequency:    4.0795085040
  - # 17
    frequency:    4.0835485120
  - # 18
    frequency:    4.0940382064

- q-position: [    0.0728643,    0.0000000,    0.0000000 ]
  distance:    0.0170963
  band:
  - # 1
    frequency:    0.3662910345
  - # 2
    frequency:    0.4012528322
  - # 3
    frequency:    0.4662825033
  - # 4
    frequency:    1.6548676826
  - # 5
    frequency:    1.6596228668
  - # 6
    frequency:    2.0187918489
  - # 7
    frequency:    2.0303870859
  - # 8
    frequency:    2.8502487324
  - # 9
    frequency:    2.9276478793
  - # 10
    frequency:    3.1336849878
  - # 11
    frequency:    3.3119539475
  - # 12
    frequency:    3.3771298794
  - # 13
    frequency:    3.3800319879
  - # 14
    frequency:    3.8434721193
  - # 15
    frequency:    3.8447031459
  - # 16
    frequency:    4.0777089423
  - # 17
    frequency:    4.0820437587
  - # 18
    frequency:    4.0931905749

- q-position: [    0.0753769,    0.0000000,    0.0000000 ]
  distance:    0.0176858
  band:
  - # 1
    frequency:    0.3788621041
  - # 2
    frequency:    0.4149890658
  - # 3
    frequency:    0.4822847117
  - # 4
    frequency:    1.6578455693
  - # 5
    frequency:    1.6629301488
  - # 6
    frequency:    2.0204798960
  - # 7
    frequency:    2.0328776222
  - # 8
    frequency:    2.8508378870
  - # 9
    frequency:    2.9278306298
  - # 10
    frequency:    3.1334783687
  - # 11
    frequency:    3.3111503011
  - # 12
    frequency:    3.3759252354
  - # 13
    frequency:    3.3790283877
  - # 14
    frequency:    3.8420385301
  - # 15
    frequency:    3.8433566408
  - # 16
    frequency:    4.0758465633
  - # 17
    frequency:    4.0804866873
  - # 18
    frequency:    4.0923135691

- q-position: [    0.0778894,    0.0000000,    0.0000000 ]
  distance:    0.0182753
  band:
  - # 1
    frequency:    0.3914271111
  - # 2
    frequency:    0.4287151151
  - # 3
    frequency:    0.4982791395
  - # 4
    frequency:    1.6609157113
  - # 5
    frequency:    1.6663403438
  - # 6
    frequency:    2.0222225863
  - # 7
    frequency:    2.0354485363
  - # 8
    frequency:    2.8514423157
  - # 9
    frequency:    2.9280165355
  - # 10
    frequency:    3.1332648607
  - # 11
    frequency:    3.3103259085
  - # 12
    frequency:    3.3746804931
  - # 13
    frequency:    3.3779911380
  - # 14
    frequency:    3.8405567585
  - # 15
    frequency:    3.8419650065
  - # 16
    frequency:    4.0739214005
  - # 17
    frequency:    4.0788773476
  - # 18
    frequency:    4.0914072270

- q-position: [    0.0804020,    0.0000000,    0.0000000 ]
  distance:    0.0188649
  band:
  - # 1
    frequency:    0.4039858539
  - # 2
    frequency:    0.4424306394
  - # 3
    frequency:    0.5142655274
  - # 4
    frequency:    1.6640772862
  - # 5
    frequency:    1.6698525923
  - # 6
    frequency:    2.0240196694
  - # 7
    frequency:    2.0380994396
  - # 8
    frequency:    2.8520615471
  - # 9
    frequency:    2.9282052400
  - # 10
    frequency:    3.1330444754
  - # 11
    frequency:    3.3094814754
  - # 12
    frequency:    3.3733957292
  - # 13
    frequency:    3.3769202761
  - # 14
    frequency:    3.8390268463
  - # 15
    frequency:    3.8405282950
  - # 16
    frequency:    4.0719334891
  - # 17
    frequency:    4.0772157914
  - # 18
    frequency:    4.0904715880

- q-position: [    0.0829146,    0.0000000,    0.0000000 ]
  distance:    0.0194544
  band:
  - # 1
    frequency:    0.4165381313
  - # 2
    frequency:    0.4561352979
  - # 3
    frequency:    0.5302436157
  - # 4
    frequency:    1.6673294514
  - # 5
    frequency:    1.6734660158
  - # 6
    frequency:    2.0258708880
  - # 7
    frequency:    2.0408299334
  - # 8
    frequency:    2.8526950942
  - # 9
    frequency:    2.9283963672
  - # 10
    frequency:    3.1328172245
  - # 11
    frequency:    3.3086177398
  - # 12
    frequency:    3.3720710241
  - # 13
    frequency:    3.3758158406
  - # 14
    frequency:    3.8374488366
  - # 15
    frequency:    3.8390465604
  - # 16
    frequency:    4.0698828651
  - # 17
    frequency:    4.0755020722
  - # 18
    frequency:    4.0895066929

- q-position: [    0.0854271,    0.0000000,    0.0000000 ]
  distance:    0.0200439
  band:
  - # 1
    frequency:    0.4290837418
  - # 2
    frequency:    0.4698287496
  - # 3
    frequency:    0.5462131448
  - # 4
    frequency:    1.6706713451
  - # 5
    frequency:    1.6771797173
  - # 6
    frequency:    2.0277759778
  - # 7
    frequency:    2.0436396089
  - # 8
    frequency:    2.8533424535
  - # 9
    frequency:    2.9285895198
  - # 10
    frequency:    3.1325831205
  - # 11
    frequency:    3.3077354729
  - # 12
    frequency:    3.3707064607
  - # 13
    frequency:    3.3746778715
  - # 14
    frequency:    3.8358227740
  - # 15
    frequency:    3.8375198585
  - # 16
    frequency:    4.0677695660
  - # 17
    frequency:    4.0737362451
  - # 18
    frequency:    4.0885125834

- q-position: [    0.0879397,    0.0000000,    0.0000000 ]
  distance:    0.0206334
  band:
  - # 1
    frequency:    0.4416224844
  - # 2
    frequency:    0.4835106535
  - # 3
    frequency:    0.5621738550
  - # 4
    frequency:    1.6741020864
  - # 5
    frequency:    1.6809927823
  - # 6
    frequency:    2.0297346680
  - # 7
    frequency:    2.0465280475
  - # 8
    frequency:    2.8540031057
  - # 9
    frequency:    2.9287842796
  - # 10
    frequency:    3.1323421757
  - # 11
    frequency:    3.3068354797
  - # 12
    frequency:    3.3693021257
  - # 13
    frequency:    3.3735064100
  - # 14