6    
6    

1    
  0.0041817444073235   0.0000000000000000   0.0090836674153020
  -0.0157083600    0.0000435400   -0.0416179600
   0.0095070400    0.0000493900   -0.0028890100
   0.0062240700   -0.0000517100    0.2097303900
  -0.0007541400   -0.0000740500   -0.1756227500
   0.0008253300    0.0000448300   -0.2630501500
  -0.0000939400   -0.0000120000    0.2734494800

1    
 -0.0041817444073235   0.0000000000000000  -0.0090836674153020
   0.0155210700    0.0000523600    0.0423156700
  -0.0096555400    0.0000603000    0.0036209900
  -0.0056559200   -0.0000986600    0.1760246500
   0.0007607800   -0.0000263200   -0.2109022300
  -0.0009665500    0.0000369900   -0.2740936300
  -0.0000038500   -0.0000246700    0.2630345400

3    
  0.0041817444073235   0.0000000000000000   0.0090836674153020
   0.0057934900    0.0000611700    0.0164482900
  -0.0006989600    0.0000239800    0.0170271200
  -0.0217814000    0.0000257100    0.1383357500
   0.0000417800   -0.0000737700   -0.1949280000
   0.0005893200   -0.0000191300   -0.2598353100
   0.0160557600   -0.0000179700    0.2829521500

3    
 -0.0041817444073235   0.0000000000000000  -0.0090836674153020
  -0.0058241100   -0.0004112900   -0.0178705100
   0.0004358200    0.0001569800   -0.0179834200
   0.0215789100   -0.0000899800    0.2537815700
   0.0000624800    0.0003645500   -0.1958724700
  -0.0005877800    0.0000333200   -0.2750975200
  -0.0156653100   -0.0000535900    0.2530423500

5    
  0.0041817444073235   0.0000000000000000   0.0090836674153020
   0.0009298300   -0.0000068900    0.0051992000
  -0.0000034400   -0.0000167600    0.0052478100
   0.0006135400    0.0000170100    0.2052042200
   0.0160149600    0.0000302500   -0.1829768400
  -0.0206634900   -0.0000193900   -0.3050054500
   0.0031086000   -0.0000042200    0.2723310600

5    
 -0.0041817444073235   0.0000000000000000  -0.0090836674153020
  -0.0009049500   -0.0000080300   -0.0048224900
   0.0000282400    0.0000097800   -0.0048265300
  -0.0005460600    0.0000058000    0.1902683100
  -0.0157269300   -0.0000056600   -0.2134716700
   0.0203029100    0.0000107600   -0.2287743500
  -0.0031532000   -0.0000126500    0.2616267300
