phonopy:
  version: "2.33.3"
  frequency_unit_conversion_factor: 15.633302
  symmetry_tolerance: 1.00000e-05
  configuration:
    create_displacements: ".true."
    primitive_axes: "auto"
    dim: "1 1 1"

physical_unit:
  atomic_mass: "AMU"
  length: "angstrom"

space_group:
  type: "P4/nmm"
  number: 129
  Hall_symbol: "P 4ab 2ab -1ab"

primitive_matrix:
- [  1.000000000000000,  0.000000000000000,  0.000000000000000 ]
- [  0.000000000000000,  1.000000000000000,  0.000000000000000 ]
- [  0.000000000000000,  0.000000000000000,  1.000000000000000 ]

supercell_matrix:
- [   1,   0,   0 ]
- [   0,   1,   0 ]
- [   0,   0,   1 ]

primitive_cell:
  lattice:
  - [     4.262000083900000,     0.000000000000000,     0.000000000000000 ] # a
  - [     0.000000000000000,     4.262000083900000,     0.000000000000000 ] # b
  - [     0.000000000000000,     0.000000000000000,     9.258000373800000 ] # c
  points:
  - symbol: Sb # 1
    coordinates: [  0.750000000000000,  0.250000000000000,  0.500000000000000 ]
    mass: 121.760000
  - symbol: Sb # 2
    coordinates: [  0.250000000000000,  0.750000000000000,  0.500000000000000 ]
    mass: 121.760000
  - symbol: Gd # 3
    coordinates: [  0.250000000000000,  0.250000000000000,  0.769999981000000 ]
    mass: 157.250000
  - symbol: Gd # 4
    coordinates: [  0.750000000000000,  0.750000000000000,  0.230000019000000 ]
    mass: 157.250000
  - symbol: Te # 5
    coordinates: [  0.250000000000000,  0.250000000000000,  0.129999995000000 ]
    mass: 127.600000
  - symbol: Te # 6
    coordinates: [  0.750000000000000,  0.750000000000000,  0.870000005000000 ]
    mass: 127.600000
  reciprocal_lattice: # without 2pi
  - [     0.234631623724638,     0.000000000000000,     0.000000000000000 ] # a*
  - [     0.000000000000000,     0.234631623724638,     0.000000000000000 ] # b*
  - [     0.000000000000000,     0.000000000000000,     0.108014685636651 ] # c*

unit_cell:
  lattice:
  - [     4.262000083900000,     0.000000000000000,     0.000000000000000 ] # a
  - [     0.000000000000000,     4.262000083900000,     0.000000000000000 ] # b
  - [     0.000000000000000,     0.000000000000000,     9.258000373800000 ] # c
  points:
  - symbol: Sb # 1
    coordinates: [  0.750000000000000,  0.250000000000000,  0.500000000000000 ]
    mass: 121.760000
    reduced_to: 1
  - symbol: Sb # 2
    coordinates: [  0.250000000000000,  0.750000000000000,  0.500000000000000 ]
    mass: 121.760000
    reduced_to: 2
  - symbol: Gd # 3
    coordinates: [  0.250000000000000,  0.250000000000000,  0.769999981000000 ]
    mass: 157.250000
    reduced_to: 3
  - symbol: Gd # 4
    coordinates: [  0.750000000000000,  0.750000000000000,  0.230000019000000 ]
    mass: 157.250000
    reduced_to: 4
  - symbol: Te # 5
    coordinates: [  0.250000000000000,  0.250000000000000,  0.129999995000000 ]
    mass: 127.600000
    reduced_to: 5
  - symbol: Te # 6
    coordinates: [  0.750000000000000,  0.750000000000000,  0.870000005000000 ]
    mass: 127.600000
    reduced_to: 6

supercell:
  lattice:
  - [     4.262000083900000,     0.000000000000000,     0.000000000000000 ] # a
  - [     0.000000000000000,     4.262000083900000,     0.000000000000000 ] # b
  - [     0.000000000000000,     0.000000000000000,     9.258000373800000 ] # c
  points:
  - symbol: Sb # 1
    coordinates: [  0.750000000000000,  0.250000000000000,  0.500000000000000 ]
    mass: 121.760000
    reduced_to: 1
  - symbol: Sb # 2
    coordinates: [  0.250000000000000,  0.750000000000000,  0.500000000000000 ]
    mass: 121.760000
    reduced_to: 2
  - symbol: Gd # 3
    coordinates: [  0.250000000000000,  0.250000000000000,  0.769999981000000 ]
    mass: 157.250000
    reduced_to: 3
  - symbol: Gd # 4
    coordinates: [  0.750000000000000,  0.750000000000000,  0.230000019000000 ]
    mass: 157.250000
    reduced_to: 4
  - symbol: Te # 5
    coordinates: [  0.250000000000000,  0.250000000000000,  0.129999995000000 ]
    mass: 127.600000
    reduced_to: 5
  - symbol: Te # 6
    coordinates: [  0.750000000000000,  0.750000000000000,  0.870000005000000 ]
    mass: 127.600000
    reduced_to: 6

displacements:
- atom:    1
  displacement:
    [   0.0041817444073235,  0.0000000000000000,  0.0090836674153020 ]
- atom:    1
  displacement:
    [  -0.0041817444073235,  0.0000000000000000, -0.0090836674153020 ]
- atom:    3
  displacement:
    [   0.0041817444073235,  0.0000000000000000,  0.0090836674153020 ]
- atom:    3
  displacement:
    [  -0.0041817444073235,  0.0000000000000000, -0.0090836674153020 ]
- atom:    5
  displacement:
    [   0.0041817444073235,  0.0000000000000000,  0.0090836674153020 ]
- atom:    5
  displacement:
    [  -0.0041817444073235,  0.0000000000000000, -0.0090836674153020 ]
