nqpoint: 1400   
npath: 7      
segment_nqpoint:
- 200
- 200
- 200
- 200
- 200
- 200
- 200
reciprocal_lattice:
- [   0.23463162,   0.00000000,   0.00000000 ] # a*
- [   0.00000000,   0.23463162,   0.00000000 ] # b*
- [   0.00000000,   0.00000000,   0.10801469 ] # c*
natom: 6      
lattice:
- [     4.262000083900000,     0.000000000000000,     0.000000000000000 ] # a
- [     0.000000000000000,     4.262000083900000,     0.000000000000000 ] # b
- [     0.000000000000000,     0.000000000000000,     9.258000373800000 ] # c
points:
- symbol: Sb # 1
  coordinates: [  0.750000000000000,  0.250000000000000,  0.500000000000000 ]
  mass: 121.760000
- symbol: Sb # 2
  coordinates: [  0.250000000000000,  0.750000000000000,  0.500000000000000 ]
  mass: 121.760000
- symbol: Gd # 3
  coordinates: [  0.250000000000000,  0.250000000000000,  0.769999981000000 ]
  mass: 157.250000
- symbol: Gd # 4
  coordinates: [  0.750000000000000,  0.750000000000000,  0.230000019000000 ]
  mass: 157.250000
- symbol: Te # 5
  coordinates: [  0.250000000000000,  0.250000000000000,  0.129999995000000 ]
  mass: 127.600000
- symbol: Te # 6
  coordinates: [  0.750000000000000,  0.750000000000000,  0.870000005000000 ]
  mass: 127.600000

phonon:
- q-position: [    0.0000000,    0.0000000,    0.0000000 ]
  distance:    0.0000000
  band:
  - # 1
    frequency:   -0.0053598069
  - # 2
    frequency:   -0.0028006700
  - # 3
    frequency:   -0.0028006700
  - # 4
    frequency:    1.5869601952
  - # 5
    frequency:    1.5869601952
  - # 6
    frequency:    2.0023315877
  - # 7
    frequency:    2.0023315877
  - # 8
    frequency:    2.8656887220
  - # 9
    frequency:    2.9266715810
  - # 10
    frequency:    3.1609159277
  - # 11
    frequency:    3.4178808422
  - # 12
    frequency:    3.4178808422
  - # 13
    frequency:    3.4268873156
  - # 14
    frequency:    3.8630791488
  - # 15
    frequency:    3.8630791488
  - # 16
    frequency:    4.0932852085
  - # 17
    frequency:    4.1162888497
  - # 18
    frequency:    4.1162888497

- q-position: [    0.0025126,    0.0000000,    0.0000000 ]
  distance:    0.0005895
  band:
  - # 1
    frequency:    0.0117625513
  - # 2
    frequency:    0.0135679946
  - # 3
    frequency:    0.0159452862
  - # 4
    frequency:    1.5870136871
  - # 5
    frequency:    1.5870197303
  - # 6
    frequency:    2.0023609379
  - # 7
    frequency:    2.0023754321
  - # 8
    frequency:    2.8656985949
  - # 9
    frequency:    2.9266750864
  - # 10
    frequency:    3.1609121787
  - # 11
    frequency:    3.4178599055
  - # 12
    frequency:    3.4178637099
  - # 13
    frequency:    3.4268720323
  - # 14
    frequency:    3.8630546319
  - # 15
    frequency:    3.8630562000
  - # 16
    frequency:    4.0932710708
  - # 17
    frequency:    4.1162570170
  - # 18
    frequency:    4.1162625059

- q-position: [    0.0050251,    0.0000000,    0.0000000 ]
  distance:    0.0011791
  band:
  - # 1
    frequency:    0.0252903581
  - # 2
    frequency:    0.0275658249
  - # 3
    frequency:    0.0322571416
  - # 4
    frequency:    1.5871741469
  - # 5
    frequency:    1.5871983181
  - # 6
    frequency:    2.0024489838
  - # 7
    frequency:    2.0025069580
  - # 8
    frequency:    2.8657282070
  - # 9
    frequency:    2.9266855991
  - # 10
    frequency:    3.1609009319
  - # 11
    frequency:    3.4177970966
  - # 12
    frequency:    3.4178123137
  - # 13
    frequency:    3.4268261901
  - # 14
    frequency:    3.8629810816
  - # 15
    frequency:    3.8629873545
  - # 16
    frequency:    4.0932286582
  - # 17
    frequency:    4.1161615195
  - # 18
    frequency:    4.1161834752

- q-position: [    0.0075377,    0.0000000,    0.0000000 ]
  distance:    0.0017686
  band:
  - # 1
    frequency:    0.0384053875
  - # 2
    frequency:    0.0414662938
  - # 3
    frequency:    0.0484862799
  - # 4
    frequency:    1.5874415264
  - # 5
    frequency:    1.5874959066
  - # 6
    frequency:    2.0025957121
  - # 7
    frequency:    2.0027261434
  - # 8
    frequency:    2.8657775397
  - # 9
    frequency:    2.9267031086
  - # 10
    frequency:    3.1608821879
  - # 11
    frequency:    3.4176924188
  - # 12
    frequency:    3.4177266554
  - # 13
    frequency:    3.4267498129
  - # 14
    frequency:    3.8628585001
  - # 15
    frequency:    3.8628726148
  - # 16
    frequency:    4.0931579727
  - # 17
    frequency:    4.1160023589
  - # 18
    frequency:    4.1160517603

- q-position: [    0.0100503,    0.0000000,    0.0000000 ]
  distance:    0.0023581
  band:
  - # 1
    frequency:    0.0514239069
  - # 2
    frequency:    0.0553419787
  - # 3
    frequency:    0.0646943370
  - # 4
    frequency:    1.5878157457
  - # 5
    frequency:    1.5879124088
  - # 6
    frequency:    2.0028011004
  - # 7
    frequency:    2.0030329517
  - # 8
    frequency:    2.8658465614
  - # 9
    frequency:    2.9267275975
  - # 10
    frequency:    3.1608559477
  - # 11
    frequency:    3.4175458780
  - # 12
    frequency:    3.4176067382
  - # 13
    frequency:    3.4266429399
  - # 14
    frequency:    3.8626868908
  - # 15
    frequency:    3.8627119852
  - # 16
    frequency:    4.0930590174
  - # 17
    frequency:    4.1157795379
  - # 18
    frequency:    4.1158673652

- q-position: [    0.0125628,    0.0000000,    0.0000000 ]
  distance:    0.0029476
  band:
  - # 1
    frequency:    0.0644038792
  - # 2
    frequency:    0.0692068544
  - # 3
    frequency:    0.0808932641
  - # 4
    frequency:    1.5882966931
  - # 5
    frequency:    1.5884477034
  - # 6
    frequency:    2.0030651173
  - # 7
    frequency:    2.0034273315
  - # 8
    frequency:    2.8659352280
  - # 9
    frequency:    2.9267590414
  - # 10
    frequency:    3.1608222127
  - # 11
    frequency:    3.4173574821
  - # 12
    frequency:    3.4174525664
  - # 13
    frequency:    3.4265056266
  - # 14
    frequency:    3.8624662583
  - # 15
    frequency:    3.8625054718
  - # 16
    frequency:    4.0929317970
  - # 17
    frequency:    4.1154930603
  - # 18
    frequency:    4.1156302960

- q-position: [    0.0150754,    0.0000000,    0.0000000 ]
  distance:    0.0035372
  band:
  - # 1
    frequency:    0.0773640790
  - # 2
    frequency:    0.0830653334
  - # 3
    frequency:    0.0970868586
  - # 4
    frequency:    1.5888842249
  - # 5
    frequency:    1.5891016345
  - # 6
    frequency:    2.0033877226
  - # 7
    frequency:    2.0039092170
  - # 8
    frequency:    2.8660434829
  - # 9
    frequency:    2.9267974087
  - # 10
    frequency:    3.1607809847
  - # 11
    frequency:    3.4171272415
  - # 12
    frequency:    3.4172641458
  - # 13
    frequency:    3.4263379441
  - # 14
    frequency:    3.8621966087
  - # 15
    frequency:    3.8622530821
  - # 16
    frequency:    4.0927763171
  - # 17
    frequency:    4.1151429311
  - # 18
    frequency:    4.1153405601

- q-position: [    0.0175879,    0.0000000,    0.0000000 ]
  distance:    0.0041267
  band:
  - # 1
    frequency:    0.0903123596
  - # 2
    frequency:    0.0969191121
  - # 3
    frequency:    0.1132765982
  - # 4
    frequency:    1.5895781659
  - # 5
    frequency:    1.5898740120
  - # 6
    frequency:    2.0037688671
  - # 7
    frequency:    2.0044785277
  - # 8
    frequency:    2.8661712571
  - # 9
    frequency:    2.9268426607
  - # 10
    frequency:    3.1607322660
  - # 11
    frequency:    3.4168551686
  - # 12
    frequency:    3.4170414833
  - # 13
    frequency:    3.4261399796
  - # 14
    frequency:    3.8618779495
  - # 15
    frequency:    3.8619548256
  - # 16
    frequency:    4.0925925849
  - # 17
    frequency:    4.1147291563
  - # 18
    frequency:    4.1149981669

- q-position: [    0.0201005,    0.0000000,    0.0000000 ]
  distance:    0.0047162
  band:
  - # 1
    frequency:    0.1032525239
  - # 2
    frequency:    0.1107688707
  - # 3
    frequency:    0.1294630922
  - # 4
    frequency:    1.5903783094
  - # 5
    frequency:    1.5907646117
  - # 6
    frequency:    2.0042084928
  - # 7
    frequency:    2.0051351688
  - # 8
    frequency:    2.8663184686
  - # 9
    frequency:    2.9268947513
  - # 10
    frequency:    3.1606760592
  - # 11
    frequency:    3.4165412786
  - # 12
    frequency:    3.4167845869
  - # 13
    frequency:    3.4259118364
  - # 14
    frequency:    3.8615102894
  - # 15
    frequency:    3.8616107135
  - # 16
    frequency:    4.0923806088
  - # 17
    frequency:    4.1142517432
  - # 18
    frequency:    4.1146031273

- q-position: [    0.0226131,    0.0000000,    0.0000000 ]
  distance:    0.0053057
  band:
  - # 1
    frequency:    0.1161865851
  - # 2
    frequency:    0.1246148386
  - # 3
    frequency:    0.1456465645
  - # 4
    frequency:    1.5912844173
  - # 5
    frequency:    1.5917731754
  - # 6
    frequency:    2.0047065328
  - # 7
    frequency:    2.0058790308
  - # 8
    frequency:    2.8664850234
  - # 9
    frequency:    2.9269536271
  - # 10
    frequency:    3.1606123672
  - # 11
    frequency:    3.4161855885
  - # 12
    frequency:    3.4164934662
  - # 13
    frequency:    3.4256536339
  - # 14
    frequency:    3.8610936386
  - # 15
    frequency:    3.8612207586
  - # 16
    frequency:    4.0921403983
  - # 17
    frequency:    4.1137106999
  - # 18
    frequency:    4.1141554538

- q-position: [    0.0251256,    0.0000000,    0.0000000 ]
  distance:    0.0058953
  band:
  - # 1
    frequency:    0.1291156648
  - # 2
    frequency:    0.1384570201
  - # 3
    frequency:    0.1618270463
  - # 4
    frequency:    1.5922962205
  - # 5
    frequency:    1.5928994117
  - # 6
    frequency:    2.0052629113
  - # 7
    frequency:    2.0067099900
  - # 8
    frequency:    2.8666708146
  - # 9
    frequency:    2.9270192269
  - # 10
    frequency:    3.1605411936
  - # 11
    frequency:    3.4157881179
  - # 12
    frequency:    3.4161681319
  - # 13
    frequency:    3.4253655080
  - # 14
    frequency:    3.8606280086
  - # 15
    frequency:    3.8607849754
  - # 16
    frequency:    4.0918719644
  - # 17
    frequency:    4.1131060359
  - # 18
    frequency:    4.1136551609

- q-position: [    0.0276382,    0.0000000,    0.0000000 ]
  distance:    0.0064848
  band:
  - # 1
    frequency:    0.1420403998
  - # 2
    frequency:    0.1522952964
  - # 3
    frequency:    0.1780044640
  - # 4
    frequency:    1.5934134193
  - # 5
    frequency:    1.5941429958
  - # 6
    frequency:    2.0058775437
  - # 7
    frequency:    2.0076279084
  - # 8
    frequency:    2.8668757229
  - # 9
    frequency:    2.9270914822
  - # 10
    frequency:    3.1604625421
  - # 11
    frequency:    3.4153488889
  - # 12
    frequency:    3.4158085958
  - # 13
    frequency:    3.4250476109
  - # 14
    frequency:    3.8601134121
  - # 15
    frequency:    3.8603033803
  - # 16
    frequency:    4.0915753193
  - # 17
    frequency:    4.1124377615
  - # 18
    frequency:    4.1131022645

- q-position: [    0.0301508,    0.0000000,    0.0000000 ]
  distance:    0.0070743
  band:
  - # 1
    frequency:    0.1549611441
  - # 2
    frequency:    0.1661294772
  - # 3
    frequency:    0.1941786825
  - # 4
    frequency:    1.5946356832
  - # 5
    frequency:    1.5955035699
  - # 6
    frequency:    2.0065503369
  - # 7
    frequency:    2.0086326338
  - # 8
    frequency:    2.8670996168
  - # 9
    frequency:    2.9271703162
  - # 10
    frequency:    3.1603764169
  - # 11
    frequency:    3.4148679255
  - # 12
    frequency:    3.4154148712
  - # 13
    frequency:    3.4247001115
  - # 14
    frequency:    3.8595498635
  - # 15
    frequency:    3.8597759913
  - # 16
    frequency:    4.0912504766
  - # 17
    frequency:    4.1117058883
  - # 18
    frequency:    4.1124967824

- q-position: [    0.0326633,    0.0000000,    0.0000000 ]
  distance:    0.0076638
  band:
  - # 1
    frequency:    0.1678780783
  - # 2
    frequency:    0.1799593281
  - # 3
    frequency:    0.2103495292
  - # 4
    frequency:    1.5959626516
  - # 5
    frequency:    1.5969807441
  - # 6
    frequency:    2.0072811887
  - # 7
    frequency:    2.0097239998
  - # 8
    frequency:    2.8673423518
  - # 9
    frequency:    2.9272556442
  - # 10
    frequency:    3.1602828228
  - # 11
    frequency:    3.4143452546
  - # 12
    frequency:    3.4149869726
  - # 13
    frequency:    3.4243231957
  - # 14
    frequency:    3.8589373782
  - # 15
    frequency:    3.8592028281
  - # 16
    frequency:    4.0908974510
  - # 17
    frequency:    4.1109104291
  - # 18
    frequency:    4.1118387339

- q-position: [    0.0351759,    0.0000000,    0.0000000 ]
  distance:    0.0082534
  band:
  - # 1
    frequency:    0.1807912713
  - # 2
    frequency:    0.1937845865
  - # 3
    frequency:    0.2265168072
  - # 4
    frequency:    1.5973939338
  - # 5
    frequency:    1.5985740963
  - # 6
    frequency:    2.0080699886
  - # 7
    frequency:    2.0109018261
  - # 8
    frequency:    2.8676037716
  - # 9
    frequency:    2.9273473730
  - # 10
    frequency:    3.1601817647
  - # 11
    frequency:    3.4137809052
  - # 12
    frequency:    3.4145249158
  - # 13
    frequency:    3.4239170662
  - # 14
    frequency:    3.8582759732
  - # 15
    frequency:    3.8585839123
  - # 16
    frequency:    4.0905162587
  - # 17
    frequency:    4.1100513975
  - # 18
    frequency:    4.1111281400

- q-position: [    0.0376884,    0.0000000,    0.0000000 ]
  distance:    0.0088429
  band:
  - # 1
    frequency:    0.1937007180
  - # 2
    frequency:    0.2076049706
  - # 3
    frequency:    0.2426803037
  - # 4
    frequency:    1.5989291097
  - # 5
    frequency:    1.6002831726
  - # 6
    frequency:    2.0089166172
  - # 7
    frequency:    2.0121659185
  - # 8
    frequency:    2.8678837071
  - # 9
    frequency:    2.9274454011
  - # 10
    frequency:    3.1600732480
  - # 11
    frequency:    3.4131749086
  - # 12
    frequency:    3.4140287177
  - # 13
    frequency:    3.4234819430
  - # 14
    frequency:    3.8575656667
  - # 15
    frequency:    3.8579192670
  - # 16
    frequency:    4.0901069170
  - # 17
    frequency:    4.1091288084
  - # 18
    frequency:    4.1103650237

- q-position: [    0.0402010,    0.0000000,    0.0000000 ]
  distance:    0.0094324
  band:
  - # 1
    frequency:    0.2066063619
  - # 2
    frequency:    0.2214201857
  - # 3
    frequency:    0.2588397945
  - # 4
    frequency:    1.6005677300
  - # 5
    frequency:    1.6021074883
  - # 6
    frequency:    2.0098209466
  - # 7
    frequency:    2.0135160690
  - # 8
    frequency:    2.8681819770
  - # 9
    frequency:    2.9275496178
  - # 10
    frequency:    3.1599572786
  - # 11
    frequency:    3.4125272988
  - # 12
    frequency:    3.4134983967
  - # 13
    frequency:    3.4230180639
  - # 14
    frequency:    3.8568064785
  - # 15
    frequency:    3.8572089172
  - # 16
    frequency:    4.0896694446
  - # 17
    frequency:    4.1081426779
  - # 18
    frequency:    4.1095494093

- q-position: [    0.0427136,    0.0000000,    0.0000000 ]
  distance:    0.0100220
  band:
  - # 1
    frequency:    0.2195081109
  - # 2
    frequency:    0.2352299281
  - # 3
    frequency:    0.2749950478
  - # 4
    frequency:    1.6023093166
  - # 5
    frequency:    1.6040465281
  - # 6
    frequency:    2.0107828406
  - # 7
    frequency:    2.0149520559
  - # 8
    frequency:    2.8684983877
  - # 9
    frequency:    2.9276599037
  - # 10
    frequency:    3.1598338628
  - # 11
    frequency:    3.4118381121
  - # 12
    frequency:    3.4129339723
  - # 13
    frequency:    3.4225256840
  - # 14
    frequency:    3.8559984295
  - # 15
    frequency:    3.8564528896
  - # 16
    frequency:    4.0892038615
  - # 17
    frequency:    4.1070930231
  - # 18
    frequency:    4.1086813231

- q-position: [    0.0452261,    0.0000000,    0.0000000 ]
  distance:    0.0106115
  band:
  - # 1
    frequency:    0.2324058466
  - # 2
    frequency:    0.2490338871
  - # 3
    frequency:    0.2911458261
  - # 4
    frequency:    1.6041533630
  - # 5
    frequency:    1.6060997464
  - # 6
    frequency:    2.0118021542
  - # 7
    frequency:    2.0164736442
  - # 8
    frequency:    2.8688327332
  - # 9
    frequency:    2.9277761297
  - # 10
    frequency:    3.1597030071
  - # 11
    frequency:    3.4111073873
  - # 12
    frequency:    3.4123354654
  - # 13
    frequency:    3.4220050768
  - # 14
    frequency:    3.8551415421
  - # 15
    frequency:    3.8556512128
  - # 16
    frequency:    4.0887101889
  - # 17
    frequency:    4.1059798620
  - # 18
    frequency:    4.1077607928

- q-position: [    0.0477387,    0.0000000,    0.0000000 ]
  distance:    0.0112010
  band:
  - # 1
    frequency:    0.2452994316
  - # 2
    frequency:    0.2628317474
  - # 3
    frequency:    0.3072918877
  - # 4
    frequency:    1.6060993347
  - # 5
    frequency:    1.6082665684
  - # 6
    frequency:    2.0128787343
  - # 7
    frequency:    2.0180805854
  - # 8
    frequency:    2.8691847953
  - # 9
    frequency:    2.9278981571
  - # 10
    frequency:    3.1595647187
  - # 11
    frequency:    3.4103351657
  - # 12
    frequency:    3.4117028980
  - # 13
    frequency:    3.4214565340
  - # 14
    frequency:    3.8542358401
  - # 15
    frequency:    3.8548039169
  - # 16
    frequency:    4.0881884494
  - # 17
    frequency:    4.1048032141
  - # 18
    frequency:    4.1067878482

- q-position: [    0.0502513,    0.0000000,    0.0000000 ]
  distance:    0.0117905
  band:
  - # 1
    frequency:    0.2581887142
  - # 2
    frequency:    0.2766231897
  - # 3
    frequency:    0.3234329880
  - # 4
    frequency:    1.6081466699
  - # 5
    frequency:    1.6105463905
  - # 6
    frequency:    2.0140124194
  - # 7
    frequency:    2.0197726178
  - # 8
    frequency:    2.8695543436
  - # 9
    frequency:    2.9280258371
  - # 10
    frequency:    3.1594190049
  - # 11
    frequency:    3.4095214913
  - # 12
    frequency:    3.4110362936
  - # 13
    frequency:    3.4208803659
  - # 14
    frequency:    3.8532813486
  - # 15
    frequency:    3.8539110340
  - # 16
    frequency:    4.0876386667
  - # 17
    frequency:    4.1035630997
  - # 18
    frequency:    4.1057625205

- q-position: [    0.0527638,    0.0000000,    0.0000000 ]
  distance:    0.0123801
  band:
  - # 1
    frequency:    0.2710735317
  - # 2
    frequency:    0.2904078921
  - # 3
    frequency:    0.3395688796
  - # 4
    frequency:    1.6102947795
  - # 5
    frequency:    1.6129385804
  - # 6
    frequency:    2.0152030397
  - # 7
    frequency:    2.0215494667
  - # 8
    frequency:    2.8699411357
  - # 9
    frequency:    2.9281590105
  - # 10
    frequency:    3.1592658735
  - # 11
    frequency:    3.4086664103
  - # 12
    frequency:    3.4103356770
  - # 13
    frequency:    3.4202769019
  - # 14
    frequency:    3.8522780941
  - # 15
    frequency:    3.8529725978
  - # 16
    frequency:    4.0870608662
  - # 17
    frequency:    4.1022595404
  - # 18
    frequency:    4.1046848426

- q-position: [    0.0552764,    0.0000000,    0.0000000 ]
  distance:    0.0129696
  band:
  - # 1
    frequency:    0.2839537132
  - # 2
    frequency:    0.3041855304
  - # 3
    frequency:    0.3556993138
  - # 4
    frequency:    1.6125430482
  - # 5
    frequency:    1.6154424788
  - # 6
    frequency:    2.0164504173
  - # 7
    frequency:    2.0234108447
  - # 8
    frequency:    2.8703449167
  - # 9
    frequency:    2.9282975074
  - # 10
    frequency:    3.1591053329
  - # 11
    frequency:    3.4077699718
  - # 12
    frequency:    3.4096010739
  - # 13
    frequency:    3.4196464906
  - # 14
    frequency:    3.8512261045
  - # 15
    frequency:    3.8519886438
  - # 16
    frequency:    4.0864550741
  - # 17
    frequency:    4.1008925589
  - # 18
    frequency:    4.1035548494

- q-position: [    0.0577889,    0.0000000,    0.0000000 ]
  distance:    0.0135591
  band:
  - # 1
    frequency:    0.2968290809
  - # 2
    frequency:    0.3179557784
  - # 3
    frequency:    0.3718240403
  - # 4
    frequency:    1.6148908344
  - # 5
    frequency:    1.6180573989
  - # 6
    frequency:    2.0177543662
  - # 7
    frequency:    2.0253564513
  - # 8
    frequency:    2.8707654200
  - # 9
    frequency:    2.9284411466
  - # 10
    frequency:    3.1589373917
  - # 11
    frequency:    3.4068322275
  - # 12
    frequency:    3.4088325118
  - # 13
    frequency:    3.4189895004
  - # 14
    frequency:    3.8501254091
  - # 15
    frequency:    3.8509592095
  - # 16
    frequency:    4.0858213182
  - # 17
    frequency:    4.0994621788
  - # 18
    frequency:    4.1023725771

- q-position: [    0.0603015,    0.0000000,    0.0000000 ]
  distance:    0.0141486
  band:
  - # 1
    frequency:    0.3096994519
  - # 2
    frequency:    0.3317183090
  - # 3
    frequency:    0.3879428074
  - # 4
    frequency:    1.6173374713
  - # 5
    frequency:    1.6207826279
  - # 6
    frequency:    2.0191146923
  - # 7
    frequency:    2.0273859739
  - # 8
    frequency:    2.8712023666
  - # 9
    frequency:    2.9285897355
  - # 10
    frequency:    3.1587620588
  - # 11
    frequency:    3.4058532315
  - # 12
    frequency:    3.4080300192
  - # 13
    frequency:    3.4183063197
  - # 14
    frequency:    3.8489760386
  - # 15
    frequency:    3.8498843340
  - # 16
    frequency:    4.0851596276
  - # 17
    frequency:    4.0979684251
  - # 18
    frequency:    4.1011380641

- q-position: [    0.0628141,    0.0000000,    0.0000000 ]
  distance:    0.0147382
  band:
  - # 1
    frequency:    0.3225646394
  - # 2
    frequency:    0.3454727937
  - # 3
    frequency:    0.4040553630
  - # 4
    frequency:    1.6198822670
  - # 5
    frequency:    1.6236174276
  - # 6
    frequency:    2.0205311937
  - # 7
    frequency:    2.0294990872
  - # 8
    frequency:    2.8716554657
  - # 9
    frequency:    2.9287430694
  - # 10
    frequency:    3.1585793438
  - # 11
    frequency:    3.4048330409
  - # 12
    frequency:    3.4071936260
  - # 13
    frequency:    3.4175973574
  - # 14
    frequency:    3.8477780251
  - # 15
    frequency:    3.8487640581
  - # 16
    frequency:    4.0844700325
  - # 17
    frequency:    4.0964113237
  - # 18
    frequency:    4.0998513502

- q-position: [    0.0653266,    0.0000000,    0.0000000 ]
  distance:    0.0153277
  band:
  - # 1
    frequency:    0.3354244529
  - # 2
    frequency:    0.3592189028
  - # 3
    frequency:    0.4201614539
  - # 4
    frequency:    1.6225245052
  - # 5
    frequency:    1.6265610346
  - # 6
    frequency:    2.0220036605
  - # 7
    frequency:    2.0316954541
  - # 8
    frequency:    2.8721244144
  - # 9
    frequency:    2.9289009314
  - # 10
    frequency:    3.1583892564
  - # 11
    frequency:    3.4037717155
  - # 12
    frequency:    3.4063233632
  - # 13
    frequency:    3.4168630432
  - # 14
    frequency:    3.8465314019
  - # 15
    frequency:    3.8475984247
  - # 16
    frequency:    4.0837525646
  - # 17
    frequency:    4.0947909018
  - # 18
    frequency:    4.0985124769

- q-position: [    0.0678392,    0.0000000,    0.0000000 ]
  distance:    0.0159172
  band:
  - # 1
    frequency:    0.3482786994
  - # 2
    frequency:    0.3729563064
  - # 3
    frequency:    0.4362608265
  - # 4
    frequency:    1.6252634457
  - # 5
    frequency:    1.6296126615
  - # 6
    frequency:    2.0235318753
  - # 7
    frequency:    2.0339747254
  - # 8
    frequency:    2.8726088979
  - # 9
    frequency:    2.9290630916
  - # 10
    frequency:    3.1581918069
  - # 11
    frequency:    3.4026693176
  - # 12
    frequency:    3.4054192635
  - # 13
    frequency:    3.4161038283
  - # 14
    frequency:    3.8452362040
  - # 15
    frequency:    3.8463874783
  - # 16
    frequency:    4.0830072568
  - # 17
    frequency:    4.0931071877
  - # 18
    frequency:    4.0971214876

- q-position: [    0.0703518,    0.0000000,    0.0000000 ]
  distance:    0.0165067
  band:
  - # 1
    frequency:    0.3611271836
  - # 2
    frequency:    0.3866846734
  - # 3
    frequency:    0.4523532268
  - # 4
    frequency:    1.6280983252
  - # 5
    frequency:    1.6327714976
  - # 6
    frequency:    2.0251156128
  - # 7
    frequency:    2.0363365400
  - # 8
    frequency:    2.8731085892
  - # 9
    frequency:    2.9292293069
  - # 10
    frequency:    3.1579870060
  - # 11
    frequency:    3.4015259126
  - # 12
    frequency:    3.4044813607
  - # 13
    frequency:    3.4153201855
  - # 14
    frequency:    3.8438924676
  - # 15
    frequency:    3.8451312654
  - # 16
    frequency:    4.0822341434
  - # 17
    frequency:    4.0913602106
  - # 18
    frequency:    4.0956784274

- q-position: [    0.0728643,    0.0000000,    0.0000000 ]
  distance:    0.0170963
  band:
  - # 1
    frequency:    0.3739697084
  - # 2
    frequency:    0.4004036725
  - # 3
    frequency:    0.4684384002
  - # 4
    frequency:    1.6310283576
  - # 5
    frequency:    1.6360367095
  - # 6
    frequency:    2.0267546401
  - # 7
    frequency:    2.0387805256
  - # 8
    frequency:    2.8736231497
  - # 9
    frequency:    2.9293993205
  - # 10
    frequency:    3.1577748645
  - # 11
    frequency:    3.4003415687
  - # 12
    frequency:    3.4035096897
  - # 13
    frequency:    3.4145126100
  - # 14
    frequency:    3.8425002304
  - # 15
    frequency:    3.8438298342
  - # 16
    frequency:    4.0814332598
  - # 17
    frequency:    4.0895500011
  - # 18
    frequency:    4.0941833430

- q-position: [    0.0753769,    0.0000000,    0.0000000 ]
  distance:    0.0176858
  band:
  - # 1
    frequency:    0.3868060751
  - # 2
    frequency:    0.4141129718
  - # 3
    frequency:    0.4845160920
  - # 4
    frequency:    1.6340527345
  - # 5
    frequency:    1.6394074420
  - # 6
    frequency:    2.0284487171
  - # 7
    frequency:    2.0413062983
  - # 8
    frequency:    2.8741522286
  - # 9
    frequency:    2.9295728615
  - # 10
    frequency:    3.1575553941
  - # 11
    frequency:    3.3991163571
  - # 12
    frequency:    3.4025042870
  - # 13
    frequency:    3.4136816196
  - # 14
    frequency:    3.8410595315
  - # 15
    frequency:    3.8424832347
  - # 16
    frequency:    4.0806046429
  - # 17
    frequency:    4.0876765907
  - # 18
    frequency:    4.0926362832

- q-position: [    0.0778894,    0.0000000,    0.0000000 ]
  distance:    0.0182753
  band:
  - # 1
    frequency:    0.3996360840
  - # 2
    frequency:    0.4278122389
  - # 3
    frequency:    0.5005860471
  - # 4
    frequency:    1.6371706264
  - # 5
    frequency:    1.6428828186
  - # 6
    frequency:    2.0301975962
  - # 7
    frequency:    2.0439134632
  - # 8
    frequency:    2.8746954631
  - # 9
    frequency:    2.9297496443
  - # 10
    frequency:    3.1573286064
  - # 11
    frequency:    3.3978503517
  - # 12
    frequency:    3.4014651905
  - # 13
    frequency:    3.4128277552
  - # 14
    frequency:    3.8395704114
  - # 15
    frequency:    3.8410915190
  - # 16
    frequency:    4.0797483308
  - # 17
    frequency:    4.0857400123
  - # 18
    frequency:    4.0910372980

- q-position: [    0.0804020,    0.0000000,    0.0000000 ]
  distance:    0.0188649
  band:
  - # 1
    frequency:    0.4124595340
  - # 2
    frequency:    0.4415011412
  - # 3
    frequency:    0.5166480103
  - # 4
    frequency:    1.6403811824
  - # 5
    frequency:    1.6464619427
  - # 6
    frequency:    2.0320010224
  - # 7
    frequency:    2.0466016145
  - # 8
    frequency:    2.8752524785
  - # 9
    frequency:    2.9299293684
  - # 10
    frequency:    3.1570945137
  - # 11
    frequency:    3.3965436297
  - # 12
    frequency:    3.4003924392
  - # 13
    frequency:    3.4119515816
  - # 14
    frequency:    3.8380329120
  - # 15
    frequency:    3.8396547409
  - # 16
    frequency:    4.0788643630
  - # 17
    frequency:    4.0837402997
  - # 18
    frequency:    4.0893864397

- q-position: [    0.0829146,    0.0000000,    0.0000000 ]
  distance:    0.0194544
  band:
  - # 1
    frequency:    0.4252762232
  - # 2
    frequency:    0.4551793455
  - # 3
    frequency:    0.5327017261
  - # 4
    frequency:    1.6436835315
  - # 5
    frequency:    1.6501438981
  - # 6
    frequency:    2.0338587336
  - # 7
    frequency:    2.0493703358
  - # 8
    frequency:    2.8758228878
  - # 9
    frequency:    2.9301117177
  - # 10
    frequency:    3.1568531287
  - # 11
    frequency:    3.3951962713
  - # 12
    frequency:    3.3992860736
  - # 13
    frequency:    3.4110536878
  - # 14
    frequency:    3.8364470768
  - # 15
    frequency:    3.8381729560
  - # 16
    frequency:    4.0779527803
  - # 17
    frequency:    4.0816774879
  - # 18
    frequency:    4.0876837619

- q-position: [    0.0854271,    0.0000000,    0.0000000 ]
  distance:    0.0200439
  band:
  - # 1
    frequency:    0.4380859492
  - # 2
    frequency:    0.4688465187
  - # 3
    frequency:    0.5487469389
  - # 4
    frequency:    1.6470767829
  - # 5
    frequency:    1.6539277497
  - # 6
    frequency:    2.0357704609
  - # 7
    frequency:    2.0522192002
  - # 8
    frequency:    2.8764062921
  - # 9
    frequency:    2.9302963605
  - # 10
    frequency:    3.1566044642
  - # 11
    frequency:    3.3938083597
  - # 12
    frequency:    3.3981461353
  - # 13
    frequency:    3.4101346874
  - # 14
    frequency:    3.8348129505
  - # 15
    frequency:    3.8366462222
  - # 16
    frequency:    4.0770136246
  - # 17
    frequency:    4.0795516131
  - # 18
    frequency:    4.0859293204

- q-position: [    0.0879397,    0.0000000,    0.0000000 ]
  distance:    0.0206334
  band:
  - # 1
    frequency:    0.4508885087
  - # 2
    frequency:    0.4825023272
  - # 3
    frequency:    0.5647833932
  - # 4
    frequency:    1.6505600266
  - # 5
    frequency:    1.6578125446
  - # 6
    frequency:    2.0377359280
  - # 7
    frequency:    2.0551477706
  - # 8
    frequency:    2.8770022799
  - # 9
    frequency:    2.9304829486
  - # 10
    frequency:    3.1563485338
  - # 11
    frequency:    3.3923799815
  - # 12
    frequency:    3.3969726676
  - # 13
    frequency:    3.4091952195
  - # 14